 vasp.6.3.2 27Jun22 (build Aug 17 2022 19:46:44) complex                        
  
 executed on           tv1STDVTST date 2023.05.23  05:08:21
 running   20 mpi-ranks, with    1 threads/rank
 distrk:  each k-point on   20 cores,    1 groups
 distr:  one band on NCORE=   5 cores,    4 groups


--------------------------------------------------------------------------------------------------------


 INCAR:
    = \=\=\=\=\=\=\=\=\=\=\=\=\=\=\=\=\=\=\=\=\=\=\=\=\=\=\=\=\=\=\=\=\=\=\=\=\=\=\=\=\=\=\=\=\=\=\=\=\=\=\=\=\=\=\=\=\=\=\=\=\=\=\=\=\=\=\=\=\=\=\=\=
    = \=\=\=\=\=\=\=\=\=\=\=\=\=\=\=\=\=\=\=\=\=\=\=\=\=\=\=\=\=\=\=\=\=\=\=\=\=\=\=\=\=\=\=\=\=\=\=\=\=\=\=\=\=\=\=\=\=\=\=\=\=\=\=\=\=\=\=\=\=\=\=\=
   ISTART = 0
   ICHARG = 2
   IDIPOL = 3
   MAGMOM = 12*-2 12*2 32*0 4*-4 4*4
    = \=\=\=\=\=\=\=\=\=\=\=\=\=\=\=\=\=\=\=\=\=\=\=\=\=\=\=\=\=\=\=\=\=\=\=\=\=\=\=\=\=\=\=\=\=\=\=\=\=\=\=\=\=\=\=\=\=\=\=\=\=\=\=\=\=\=\=\=\=\=\=\=
    = \=\=\=\=\=\=\=\=\=\=\=\=\=\=\=\=\=\=\=\=\=\=\=\=\=\=\=\=\=\=\=\=\=\=\=\=\=\=\=\=\=\=\=\=\=\=\=\=\=\=\=\=\=\=\=\=\=\=\=\=\=\=\=\=\=\=\=\=\=\=\=\=
   ISPIN = 2
   LDAU = .TRUE
   LDAUTYPE = 2
   LDAUL = 2 -1 2
   LDAUU = 5.3 0 4
   LDAUJ = 0 0 0
    = \=\=\=\=\=\=\=\=\=\=\=\=\=\=\=\=\=\=\=\=\=\=\=\=\=\=\=\=\=\=\=\=\=\=\=\=\=\=\=\=\=\=\=\=\=\=\=\=\=\=\=\=\=\=\=\=\=\=\=\=\=\=\=\=\=\=\=\=\=\=\=\=
    = \=\=\=\=\=\=\=\=\=\=\=\=\=\=\=\=\=\=\=\=\=\=\=\=\=\=\=\=\=\=\=\=\=\=\=\=\=\=\=\=\=\=\=\=\=\=\=\=\=\=\=\=\=\=\=\=\=\=\=\=\=\=\=\=\=\=\=\=\=\=\=\=
   ENCUT = 400
   PREC = N
   EDIFF = 1E-05
   GGA = PE
   ISMEAR = 0
   SIGMA = 0.05
   ALGO = F
   LREAL = Auto
   LMAXMIX = 4
   LASPH = .TRUE
    = \=\=\=\=\=\=\=\=\=\=\=\=\=\=\=\=\=\=\=\=\=\=\=\=\=\=\=\=\=\=\=\=\=\=\=\=\=\=\=\=\=\=\=\=\=\=\=\=\=\=\=\=\=\=\=\=\=\=\=\=\=\=\=\=\=\=\=\=\=\=\=\=
    = \=\=\=\=\=\=\=\=\=\=\=\=\=\=\=\=\=\=\=\=\=\=\=\=\=\=\=\=\=\=\=\=\=\=\=\=\=\=\=\=\=\=\=\=\=\=\=\=\=\=\=\=\=\=\=\=\=\=\=\=\=\=\=\=\=\=\=\=\=\=\=\=
   ISYM = 0
   NSW = 800
   IBRION = 2
   POTIM = 0.5
   ISIF = 2
   EDIFFG = -.03
    = \=\=\=\=\=\=\=\=\=\=\=\=\=\=\=\=\=\=\=\=\=\=\=\=\=\=\=\=\=\=\=\=\=\=\=\=\=\=\=\=\=\=\=\=\=\=\=\=\=\=\=\=\=\=\=\=\=\=\=\=\=\=\=\=\=\=\=\=\=\=\=\=
    = \=\=\=\=\=\=\=\=\=\=\=\=\=\=\=\=\=\=\=\=\=\=\=\=\=\=\=\=\=\=\=\=\=\=\=\=\=\=\=\=\=\=\=\=\=\=\=\=\=\=\=\=\=\=\=\=\=\=\=\=\=\=\=\=\=\=\=\=\=\=\=\=
   NPAR = 4
   LWAVE = .FALSE.
   LCHARG = .FALSE.
   LORBIT = 11

 POTCAR:    PAW_PBE Ni 02Aug2007                  
 POTCAR:    PAW_PBE O 08Apr2002                   
 POTCAR:    PAW_PBE Fe 06Sep2000                  
 POTCAR:    PAW_PBE Ni 02Aug2007                  
   SHA256 =  0534bc51ca8003dfef23f56753fef9fdd3e22eac8d719fccacb59f3e6b7a69c7 Ni/POTCAR             
   COPYR  = (c) Copyright 02Aug2007 Georg Kresse                                                    
   COPYR  = This file is part of the software VASP. Any use, copying, and all other rights are regul
   COPYR  = If you do not have a valid VASP license, you may not use, copy or distribute this file. 
   VRHFIN =Ni:                                                                                      
   LEXCH  = PE                                                                                      
   EATOM  =  1077.6739 eV,   79.2068 Ry                                                             
                                                                                                    
   TITEL  = PAW_PBE Ni 02Aug2007                                                                    
   LULTRA =        F    use ultrasoft PP ?                                                          
   IUNSCR =        1    unscreen: 0-lin 1-nonlin 2-no                                               
   RPACOR =    2.000    partial core radius                                                         
   POMASS =   58.690; ZVAL   =   10.000    mass and valenz                                          
   RCORE  =    2.300    outmost cutoff radius                                                       
   RWIGS  =    2.430; RWIGS  =    1.286    wigner-seitz radius (au A)                               
   ENMAX  =  269.532; ENMIN  =  202.149 eV                                                          
   RCLOC  =    1.201    cutoff for local pot                                                        
   LCOR   =        T    correct aug charges                                                         
   LPAW   =        T    paw PP                                                                      
   EAUG   =  544.565                                                                                
   DEXC   =    0.000                                                                                
   RMAX   =    2.357    core radius for proj-oper                                                   
   RAUG   =    1.300    factor for augmentation sphere                                              
   RDEP   =    2.390    radius for radial grids                                                     
   RDEPT  =    1.838    core radius for aug-charge                                                  
                                                                                                    
   Atomic configuration                                                                             
    9 entries                                                                                       
     n  l   j            E        occ.                                                              
     1  0  0.50     -8206.4253   2.0000                                                             
     2  0  0.50      -976.1748   2.0000                                                             
     2  1  1.50      -839.0571   6.0000                                                             
     3  0  0.50      -105.9991   2.0000                                                             
     3  1  1.50       -66.4603   6.0000                                                             
     3  2  2.50        -4.6458   9.0000                                                             
     4  0  0.50        -4.4926   1.0000                                                             
     4  1  1.50        -4.0817   0.0000                                                             
     4  3  2.50        -1.3606   0.0000                                                             
   Description                                                                                      
     l       E           TYP  RCUT    TYP  RCUT                                                     
     2     -4.6457903     23  2.300                                                                 
     2     -6.0063729     23  2.300                                                                 
     0     -4.4925590     23  2.300                                                                 
     0      5.0102601     23  2.300                                                                 
     1     -2.7211652     23  2.300                                                                 
     1     16.5183231     23  2.300                                                                 
  local pseudopotential read in
  partial core-charges read in
  partial kinetic energy density read in
  atomic valenz-charges read in
  non local Contribution for L=           2  read in
    real space projection operators read in
  non local Contribution for L=           2  read in
    real space projection operators read in
  non local Contribution for L=           0  read in
    real space projection operators read in
  non local Contribution for L=           0  read in
    real space projection operators read in
  non local Contribution for L=           1  read in
    real space projection operators read in
  non local Contribution for L=           1  read in
    real space projection operators read in
    PAW grid and wavefunctions read in
 
   number of l-projection  operators is LMAX  =           6
   number of lm-projection operators is LMMAX =          18
 
 POTCAR:    PAW_PBE O 08Apr2002                   
   SHA256 =  818f92134a0a090dccd8ba1447fa70422a3b330e708bb4f08108d8ae51209ddf O/POTCAR              
   COPYR  = (c) Copyright 08Apr2002 Georg Kresse                                                    
   COPYR  = This file is part of the software VASP. Any use, copying, and all other rights are regul
   COPYR  = If you do not have a valid VASP license, you may not use, copy or distribute this file. 
   VRHFIN =O: s2p4                                                                                  
   LEXCH  = PE                                                                                      
   EATOM  =   432.3788 eV,   31.7789 Ry                                                             
                                                                                                    
   TITEL  = PAW_PBE O 08Apr2002                                                                     
   LULTRA =        F    use ultrasoft PP ?                                                          
   IUNSCR =        1    unscreen: 0-lin 1-nonlin 2-no                                               
   RPACOR =    1.200    partial core radius                                                         
   POMASS =   16.000; ZVAL   =    6.000    mass and valenz                                          
   RCORE  =    1.520    outmost cutoff radius                                                       
   RWIGS  =    1.550; RWIGS  =    0.820    wigner-seitz radius (au A)                               
   ENMAX  =  400.000; ENMIN  =  300.000 eV                                                          
   ICORE  =        2    local potential                                                             
   LCOR   =        T    correct aug charges                                                         
   LPAW   =        T    paw PP                                                                      
   EAUG   =  605.392                                                                                
   DEXC   =    0.000                                                                                
   RMAX   =    1.553    core radius for proj-oper                                                   
   RAUG   =    1.300    factor for augmentation sphere                                              
   RDEP   =    1.550    radius for radial grids                                                     
   RDEPT  =    1.329    core radius for aug-charge                                                  
                                                                                                    
   Atomic configuration                                                                             
    4 entries                                                                                       
     n  l   j            E        occ.                                                              
     1  0  0.50      -514.6923   2.0000                                                             
     2  0  0.50       -23.9615   2.0000                                                             
     2  1  0.50        -9.0305   4.0000                                                             
     3  2  1.50        -9.5241   0.0000                                                             
   Description                                                                                      
     l       E           TYP  RCUT    TYP  RCUT                                                     
     0    -23.9615318     23  1.200                                                                 
     0     -9.5240782     23  1.200                                                                 
     1     -9.0304911     23  1.520                                                                 
     1      8.1634956     23  1.520                                                                 
     2     -9.5240782      7  1.500                                                                 
  local pseudopotential read in
  partial core-charges read in
  partial kinetic energy density read in
  kinetic energy density of atom read in
  atomic valenz-charges read in
  non local Contribution for L=           0  read in
    real space projection operators read in
  non local Contribution for L=           0  read in
    real space projection operators read in
  non local Contribution for L=           1  read in
    real space projection operators read in
  non local Contribution for L=           1  read in
    real space projection operators read in
    PAW grid and wavefunctions read in
 
   number of l-projection  operators is LMAX  =           4
   number of lm-projection operators is LMMAX =           8
 
 POTCAR:    PAW_PBE Fe 06Sep2000                  
   SHA256 =  cd5a22d9368cc8b5cc476bea79732366149640da08ac9009b0e1b7fc627eea28 Fe/POTCAR             
   COPYR  = (c) Copyright 06Sep2000 Georg Kresse                                                    
   COPYR  = This file is part of the software VASP. Any use, copying, and all other rights are regul
   COPYR  = If you do not have a valid VASP license, you may not use, copy or distribute this file. 
   VRHFIN =Fe:  d7 s1                                                                               
   LEXCH  = PE                                                                                      
   EATOM  =   594.3153 eV,   43.6809 Ry                                                             
                                                                                                    
   TITEL  = PAW_PBE Fe 06Sep2000                                                                    
   LULTRA =        F    use ultrasoft PP ?                                                          
   IUNSCR =        1    unscreen: 0-lin 1-nonlin 2-no                                               
   RPACOR =    2.000    partial core radius                                                         
   POMASS =   55.847; ZVAL   =    8.000    mass and valenz                                          
   RCORE  =    2.300    outmost cutoff radius                                                       
   RWIGS  =    2.460; RWIGS  =    1.302    wigner-seitz radius (au A)                               
   ENMAX  =  267.882; ENMIN  =  200.911 eV                                                          
   RCLOC  =    1.701    cutoff for local pot                                                        
   LCOR   =        T    correct aug charges                                                         
   LPAW   =        T    paw PP                                                                      
   EAUG   =  511.368                                                                                
   DEXC   =    0.000                                                                                
   RMAX   =    2.356    core radius for proj-oper                                                   
   RAUG   =    1.300    factor for augmentation sphere                                              
   RDEP   =    2.442    radius for radial grids                                                     
   RDEPT  =    1.890    core radius for aug-charge                                                  
                                                                                                    
   Atomic configuration                                                                             
    9 entries                                                                                       
     n  l   j            E        occ.                                                              
     1  0  0.50     -6993.8440   2.0000                                                             
     2  0  0.50      -814.6047   2.0000                                                             
     2  1  1.50      -693.3689   6.0000                                                             
     3  0  0.50       -89.4732   2.0000                                                             
     3  1  1.50       -55.6373   6.0000                                                             
     3  2  2.50        -3.8151   7.0000                                                             
     4  0  0.50        -4.2551   1.0000                                                             
     4  1  1.50        -3.4015   0.0000                                                             
     4  3  2.50        -1.3606   0.0000                                                             
   Description                                                                                      
     l       E           TYP  RCUT    TYP  RCUT                                                     
     2     -3.8151135     23  2.300                                                                 
     2     -5.1756961     23  2.300                                                                 
     0     -4.2550963     23  2.300                                                                 
     0      7.2035603     23  2.300                                                                 
     1     -2.7211652     23  2.300                                                                 
     1     18.4316424     23  2.300                                                                 
  local pseudopotential read in
  partial core-charges read in
  partial kinetic energy density read in
  atomic valenz-charges read in
  non local Contribution for L=           2  read in
    real space projection operators read in
  non local Contribution for L=           2  read in
    real space projection operators read in
  non local Contribution for L=           0  read in
    real space projection operators read in
  non local Contribution for L=           0  read in
    real space projection operators read in
  non local Contribution for L=           1  read in
    real space projection operators read in
  non local Contribution for L=           1  read in
    real space projection operators read in
    PAW grid and wavefunctions read in
 
   number of l-projection  operators is LMAX  =           6
   number of lm-projection operators is LMMAX =          18
 
 Optimization of the real space projectors (new method)

 maximal supplied QI-value         = 16.25
 optimisation between [QCUT,QGAM] = [ 10.24, 20.48] = [ 29.35,117.42] Ry 
 Optimized for a Real-space Cutoff    1.34 Angstroem

   l    n(q)    QCUT    max X(q) W(low)/X(q) W(high)/X(q)  e(spline) 
   2      7    10.239    60.317    0.39E-03    0.10E-02    0.10E-06
   2      7    10.239    55.921    0.39E-03    0.10E-02    0.11E-06
   0      8    10.239    51.690    0.45E-03    0.17E-03    0.10E-06
   0      8    10.239    30.015    0.41E-03    0.16E-03    0.90E-07
   1      8    10.239    18.849    0.23E-03    0.62E-03    0.14E-06
   1      8    10.239    14.624    0.18E-03    0.51E-03    0.12E-06
 Optimization of the real space projectors (new method)

 maximal supplied QI-value         = 24.76
 optimisation between [QCUT,QGAM] = [ 10.15, 20.30] = [ 28.85,115.39] Ry 
 Optimized for a Real-space Cutoff    1.38 Angstroem

   l    n(q)    QCUT    max X(q) W(low)/X(q) W(high)/X(q)  e(spline) 
   0      8    10.150    20.381    0.22E-03    0.32E-03    0.29E-06
   0      8    10.150    15.268    0.23E-03    0.35E-03    0.30E-06
   1      8    10.150     5.964    0.46E-03    0.53E-03    0.21E-06
   1      8    10.150     5.382    0.38E-03    0.45E-03    0.19E-06
 Optimization of the real space projectors (new method)

 maximal supplied QI-value         = 16.25
 optimisation between [QCUT,QGAM] = [ 10.24, 20.48] = [ 29.35,117.42] Ry 
 Optimized for a Real-space Cutoff    1.51 Angstroem

   l    n(q)    QCUT    max X(q) W(low)/X(q) W(high)/X(q)  e(spline) 
   2      8    10.239    80.901    0.43E-03    0.67E-03    0.20E-06
   2      8    10.239    75.754    0.44E-03    0.68E-03    0.20E-06
   0      9    10.239    58.752    0.81E-04    0.41E-04    0.71E-07
   0      9    10.239    30.679    0.75E-04    0.39E-04    0.65E-07
   1      9    10.239    17.977    0.50E-04    0.16E-03    0.11E-06
   1      9    10.239    13.559    0.39E-04    0.13E-03    0.98E-07
  PAW_PBE Ni 02Aug2007                  :
 energy of atom  1       EATOM=-1077.6739
 kinetic energy error for atom=    0.0101 (will be added to EATOM!!)
  PAW_PBE O 08Apr2002                   :
 energy of atom  2       EATOM= -432.3788
 kinetic energy error for atom=    0.1156 (will be added to EATOM!!)
  PAW_PBE Fe 06Sep2000                  :
 energy of atom  3       EATOM= -594.3153
 kinetic energy error for atom=    0.0088 (will be added to EATOM!!)
 
 
 POSCAR: Ni  O
  positions in cartesian coordinates
  No initial velocities read in
 exchange correlation table for  LEXCH =        8
   RHO(1)=    0.500       N(1)  =     2000
   RHO(2)=  100.500       N(2)  =     4000

 VTST: version 4.2, (08/11/21)

 CHAIN: initializing optimizer
 
 OPT: Using VASP Conjugate-Gradient optimizer
 CHAIN: Read ICHAIN            0
 
 POSCAR: Ni  O
  positions in cartesian coordinates
  No initial velocities read in
 


--------------------------------------------------------------------------------------------------------


 ion  position               nearest neighbor table
   1  1.000  1.000  0.321-  42 2.06  35 2.06  27 2.07  26 2.07  29 2.08  24 2.92  22 2.92  61 2.92
                             2 2.92  13 2.92   3 2.92  60 2.92  10 2.92
   2  0.250  0.750  0.321-  35 2.06  34 2.06  26 2.07  51 2.07  40 2.08  22 2.92  64 2.92   1 2.92
                            15 2.92  57 2.92  14 2.92  10 2.92  11 2.92
   3  0.750  0.250  0.321-  43 2.06  42 2.06  50 2.07  27 2.07  48 2.08  23 2.92  24 2.92  57 2.92
                            15 2.92  14 2.92   1 2.92  12 2.92  60 2.92
   4  0.000  0.750  0.052-  36 2.06  25 2.06  33 2.07  52 2.07  39 2.08  20 2.92  19 2.92  18 2.92
                             6 2.92  58 2.92  17 2.92   8 2.92   9 2.92
   5  0.500  0.250  0.052-  44 2.06  49 2.06  41 2.07  28 2.07  47 2.08  63 2.92  21 2.92   6 2.92
                            17 2.92  18 2.92  58 2.92  59 2.92   7 2.92
   6  0.750  0.000  0.052-  25 2.06  44 2.06  52 2.07  41 2.07  46 2.08  19 2.92  63 2.92  16 2.92
                             4 2.92   5 2.92  62 2.92   9 2.92  59 2.92
   7  0.250  0.250  0.141-  47 2.06  38 2.06  30 2.07  31 2.07  28 2.10  32 2.11  16 2.92  17 2.92
                            59 2.92  21 2.92  19 2.92   8 2.92  58 2.92   5 2.92  60 2.96  10 2.96
   8  1.000  0.500  0.141-  39 2.06  38 2.06  31 2.07  54 2.07  33 2.10  37 2.11  18 2.92  16 2.92
                             9 2.92  63 2.92  20 2.92   7 2.92   4 2.92  58 2.92  12 2.96  60 2.96
   9  0.750  0.750  0.141-  39 2.06  46 2.06  54 2.07  55 2.07  52 2.10  56 2.11  62 2.92  18 2.92
                             8 2.92  19 2.92  21 2.92  59 2.92   6 2.92   4 2.92  11 2.96  12 2.96
  10  0.250  0.000  0.232-  29 2.06  40 2.06  32 2.07  45 2.07  26 2.10  30 2.11  15 2.92  13 2.92
                            23 2.92  60 2.92  11 2.92  22 2.92   2 2.92   1 2.92  59 2.96   7 2.96
  11  0.500  0.750  0.232-  53 2.06  40 2.06  45 2.07  56 2.07  51 2.10  55 2.11  61 2.92  15 2.92
                            12 2.92  64 2.92  10 2.92  24 2.92  57 2.92   2 2.92   9 2.96  59 2.96
  12  0.750  0.500  0.232-  48 2.06  53 2.06  56 2.07  37 2.07  50 2.10  54 2.11  14 2.92  61 2.92
                            60 2.92  22 2.92  11 2.92  23 2.92   3 2.92  57 2.92   8 2.96   9 2.96
  13  0.250  0.250  0.321-  27 2.06  26 2.06  34 2.07  43 2.07  32 2.08  60 2.92  10 2.92  15 2.92
                            14 2.92  57 2.92   1 2.92  64 2.92  23 2.92
  14  1.000  0.500  0.321-  50 2.06  27 2.06  35 2.07  34 2.07  37 2.08  12 2.92  60 2.92   3 2.92
                            13 2.92  61 2.92   2 2.92  22 2.92  64 2.92
  15  0.500  1.000  0.321-  26 2.06  51 2.06  43 2.07  42 2.07  45 2.08  10 2.92  11 2.92  13 2.92
                             2 2.92   3 2.92  61 2.92  23 2.92  24 2.92
  16  0.000  0.250  0.052-  28 2.06  33 2.06  25 2.07  44 2.07  31 2.08   7 2.92   8 2.92   6 2.92
                            18 2.92  58 2.92  17 2.92  19 2.92  63 2.92
  17  0.250  0.000  0.052-  41 2.06  28 2.06  36 2.07  25 2.07  30 2.08  59 2.92   7 2.92   5 2.92
                            62 2.92  16 2.92   4 2.92  20 2.92  19 2.92
  18  0.750  0.500  0.052-  33 2.06  52 2.06  44 2.07  49 2.07  54 2.08   8 2.92   9 2.92   4 2.92
                            16 2.92  62 2.92   5 2.92  63 2.92  21 2.92
  19  1.000  1.000  0.141-  30 2.06  31 2.06  39 2.07  46 2.07  25 2.10  29 2.11   6 2.92   4 2.92
                             9 2.92  63 2.92  20 2.92   7 2.92  16 2.92  17 2.92  24 2.96  22 2.96
  20  0.250  0.750  0.141-  55 2.06  30 2.06  38 2.07  39 2.07  36 2.10  40 2.11   4 2.92  58 2.92
                            21 2.92   8 2.92  59 2.92  19 2.92  17 2.92  62 2.92  22 2.96  64 2.96
  21  0.500  0.500  0.141-  54 2.06  55 2.06  38 2.07  47 2.07  49 2.10  53 2.11  58 2.92   5 2.92
                            20 2.92   9 2.92   7 2.92  63 2.92  62 2.92  18 2.92  64 2.96  23 2.96
  22  0.000  0.750  0.232-  56 2.06  37 2.06  29 2.07  40 2.07  35 2.10  39 2.11   2 2.92   1 2.92
                            12 2.92  64 2.92  24 2.92  10 2.92  14 2.92  61 2.92  20 2.96  19 2.96
  23  0.500  0.250  0.232-  32 2.06  45 2.06  48 2.07  53 2.07  43 2.10  47 2.11   3 2.92  57 2.92
                            24 2.92  10 2.92  12 2.92  64 2.92  15 2.92  13 2.92  63 2.96  21 2.96
  24  0.750  0.000  0.232-  45 2.06  56 2.06  48 2.07  29 2.07  42 2.10  46 2.11   1 2.92   3 2.92
                            23 2.92  60 2.92  22 2.92  11 2.92  61 2.92  15 2.92  19 2.96  63 2.96
  25  0.000  0.000  0.050-   6 2.06   4 2.06  16 2.07  17 2.07  19 2.10
  26  0.250  1.000  0.323-  15 2.06  13 2.06   2 2.07   1 2.07  10 2.10
  27  1.000  0.250  0.323-  13 2.06  14 2.06   1 2.07   3 2.07  60 2.10
  28  0.250  0.250  0.050-  16 2.06  17 2.06  58 2.07   5 2.07   7 2.10
  29  0.000  0.000  0.232-  10 2.06  60 2.06  22 2.07  24 2.07   1 2.08  19 2.11
  30  0.250  1.000  0.141-  19 2.06  20 2.06   7 2.07  59 2.07  17 2.08  10 2.11
  31  1.000  0.250  0.141-  63 2.06  19 2.06   8 2.07   7 2.07  16 2.08  60 2.11
  32  0.250  0.250  0.232-  23 2.06  64 2.06  10 2.07  60 2.07  13 2.08   7 2.11
  33  0.000  0.500  0.050-  18 2.06  16 2.06   4 2.07  58 2.07   8 2.10
  34  0.250  0.500  0.323-  57 2.06   2 2.06  13 2.07  14 2.07  64 2.10
  35  1.000  0.750  0.323-   2 2.06   1 2.06  14 2.07  61 2.07  22 2.10
  36  0.250  0.750  0.050-   4 2.06  58 2.06  17 2.07  62 2.07  20 2.10
  37  0.000  0.500  0.232-  64 2.06  22 2.06  60 2.07  12 2.07  14 2.08   8 2.11
  38  0.250  0.500  0.141-   7 2.06   8 2.06  20 2.07  21 2.07  58 2.08  64 2.11
  39  1.000  0.750  0.141-   9 2.06   8 2.06  19 2.07  20 2.07   4 2.08  22 2.11
  40  0.250  0.750  0.232-  11 2.06  10 2.06  64 2.07  22 2.07   2 2.08  20 2.11
  41  0.500  0.000  0.050-  17 2.06  62 2.06   5 2.07   6 2.07  59 2.10
  42  0.750  1.000  0.323-   1 2.06   3 2.06  61 2.07  15 2.07  24 2.10
  43  0.500  0.250  0.323-   3 2.06  57 2.06  15 2.07  13 2.07  23 2.10
  44  0.750  0.250  0.050-   5 2.06   6 2.06  18 2.07  16 2.07  63 2.10
  45  0.500  0.000  0.232-  24 2.06  23 2.06  11 2.07  10 2.07  15 2.08  59 2.11
  46  0.750  1.000  0.141-  59 2.06   9 2.06  63 2.07  19 2.07   6 2.08  24 2.11
  47  0.500  0.250  0.141-   7 2.06  59 2.06  21 2.07  63 2.07   5 2.08  23 2.11
  48  0.750  0.250  0.232-  60 2.06  12 2.06  24 2.07  23 2.07   3 2.08  63 2.11
  49  0.500  0.500  0.050-  58 2.06   5 2.06  62 2.07  18 2.07  21 2.10
  50  0.750  0.500  0.323-  14 2.06  61 2.06   3 2.07  57 2.07  12 2.10
  51  0.500  0.750  0.323-  61 2.06  15 2.06  57 2.07   2 2.07  11 2.10
  52  0.750  0.750  0.050-  62 2.06  18 2.06   6 2.07   4 2.07   9 2.10
  53  0.500  0.500  0.232-  11 2.06  12 2.06  23 2.07  64 2.07  57 2.08  21 2.11
  54  0.750  0.500  0.141-  21 2.06  63 2.06   9 2.07   8 2.07  18 2.08  12 2.11
  55  0.500  0.750  0.141-  20 2.06  21 2.06  59 2.07   9 2.07  62 2.08  11 2.11
  56  0.750  0.750  0.232-  22 2.06  24 2.06  11 2.07  12 2.07  61 2.08   9 2.11
  57  0.500  0.500  0.321-  34 2.06  43 2.06  51 2.07  50 2.07  53 2.08  64 2.92  23 2.92   3 2.92
                            13 2.92   2 2.92  61 2.92  11 2.92  12 2.92
  58  0.250  0.500  0.052-  49 2.06  36 2.06  28 2.07  33 2.07  38 2.08  21 2.92  20 2.92  16 2.92
                             4 2.92  62 2.92   5 2.92   7 2.92   8 2.92
  59  0.500  1.000  0.141-  46 2.06  47 2.06  55 2.07  30 2.07  41 2.10  45 2.11  17 2.92  62 2.92
                             7 2.92  20 2.92   9 2.92  63 2.92   5 2.92   6 2.92  10 2.96  11 2.96
  60  0.000  0.250  0.232-  48 2.06  29 2.06  37 2.07  32 2.07  27 2.10  31 2.11  13 2.92  14 2.92
                            64 2.92  12 2.92  24 2.92  10 2.92   1 2.92   3 2.92   7 2.96   8 2.96
  61  0.750  0.750  0.321-  51 2.06  50 2.06  42 2.07  35 2.07  56 2.08  11 2.92  12 2.92   1 2.92
                            15 2.92  57 2.92  14 2.92  24 2.92  22 2.92
  62  0.500  0.750  0.052-  52 2.06  41 2.06  49 2.07  36 2.07  55 2.08   9 2.92  59 2.92  18 2.92
                            17 2.92   6 2.92  58 2.92  21 2.92  20 2.92
  63  0.750  0.250  0.141-  31 2.06  54 2.06  46 2.07  47 2.07  44 2.10  48 2.11   5 2.92   6 2.92
                             8 2.92  19 2.92  21 2.92  59 2.92  18 2.92  16 2.92  23 2.96  24 2.96
  64  0.250  0.500  0.232-  37 2.06  32 2.06  40 2.07  53 2.07  34 2.10  38 2.11  57 2.92   2 2.92
                            60 2.92  11 2.92  23 2.92  22 2.92  13 2.92  14 2.92  21 2.96  20 2.96
 

IMPORTANT INFORMATION: All symmetrisations will be switched off!
NOSYMM: (Re-)initialisation of all symmetry stuff for point group C_1.


----------------------------------------------------------------------------------------

                                     Primitive cell                                     

  volume of cell :    1586.3291

  direct lattice vectors                    reciprocal lattice vectors
     8.258574486  0.000000000  0.000000000     0.121086272  0.000000000  0.000000000
     0.000000000  8.258574486  0.000000000     0.000000000  0.121086272  0.000000000
     0.000000000  0.000000000 23.258575439     0.000000000  0.000000000  0.042994895

  length of vectors
     8.258574486  8.258574486 23.258575439     0.121086272  0.121086272  0.042994895

  position of ions in fractional coordinates (direct lattice)
     0.999553800  0.999554098  0.320940107
     0.249553815  0.749554157  0.320940107
     0.749553800  0.249554142  0.320940107
     0.000261758  0.750261426  0.051898405
     0.500261784  0.250261426  0.051898405
     0.750261784  0.000261438  0.051898398
     0.249848098  0.249848127  0.140649199
     0.999848068  0.499848157  0.140649199
     0.749848127  0.749848127  0.140649199
     0.250226796  0.000226752  0.232115537
     0.500226796  0.750226736  0.232115537
     0.750226796  0.500226736  0.232115537
     0.249553800  0.249554127  0.320940107
     0.999553800  0.499554127  0.320940107
     0.499553800  0.999554157  0.320940107
     0.000261765  0.250261426  0.051898394
     0.250261784  0.000261433  0.051898401
     0.750261784  0.500261426  0.051898394
     0.999848068  0.999848127  0.140649185
     0.249848083  0.749848127  0.140649199
     0.499848098  0.499848157  0.140649185
     0.000226795  0.750226736  0.232115537
     0.500226796  0.250226736  0.232115537
     0.750226796  0.000226753  0.232115537
     0.000255936  0.000255791  0.050353639
     0.249728814  0.999728978  0.322508395
     0.999728799  0.249728993  0.322508395
     0.250255972  0.250255793  0.050353643
     0.000321450  0.000321369  0.231580749
     0.249803230  0.999803305  0.141275451
     0.999803185  0.249803290  0.141275451
     0.250321448  0.250321358  0.231580764
     0.000255916  0.500255823  0.050353631
     0.249728799  0.499729007  0.322508365
     0.999728799  0.749728978  0.322508395
     0.250255942  0.750255764  0.050353643
     0.000321468  0.500321388  0.231580764
     0.249803230  0.499803275  0.141275451
     0.999803185  0.749803305  0.141275451
     0.250321448  0.750321388  0.231580749
     0.500256002  0.000255794  0.050353616
     0.749728799  0.999728978  0.322508395
     0.499728799  0.249729022  0.322508365
     0.750255942  0.250255793  0.050353631
     0.500321448  0.000321369  0.231580764
     0.749803185  0.999803305  0.141275451
     0.499803215  0.249803290  0.141275451
     0.750321448  0.250321388  0.231580764
     0.500255942  0.500255764  0.050353635
     0.749728799  0.499729007  0.322508395
     0.499728829  0.749729037  0.322508395
     0.750255942  0.750255764  0.050353624
     0.500321448  0.500321388  0.231580749
     0.749803185  0.499803305  0.141275451
     0.499803215  0.749803305  0.141275465
     0.750321448  0.750321388  0.231580764
     0.499553800  0.499554127  0.320940107
     0.250261754  0.500261426  0.051898416
     0.499848098  0.999848127  0.140649185
     0.000226796  0.250226766  0.232115537
     0.749553800  0.749554157  0.320940107
     0.500261784  0.750261426  0.051898409
     0.749848127  0.249848157  0.140649185
     0.250226796  0.500226736  0.232115537

  ion indices of the primitive-cell ions
   primitive index   ion index
                 1           1
                 2           2
                 3           3
                 4           4
                 5           5
                 6           6
                 7           7
                 8           8
                 9           9
                10          10
                11          11
                12          12
                13          13
                14          14
                15          15
                16          16
                17          17
                18          18
                19          19
                20          20
                21          21
                22          22
                23          23
                24          24
                25          25
                26          26
                27          27
                28          28
                29          29
                30          30
                31          31
                32          32
                33          33
                34          34
                35          35
                36          36
                37          37
                38          38
                39          39
                40          40
                41          41
                42          42
                43          43
                44          44
                45          45
                46          46
                47          47
                48          48
                49          49
                50          50
                51          51
                52          52
                53          53
                54          54
                55          55
                56          56
                57          57
                58          58
                59          59
                60          60
                61          61
                62          62
                63          63
                64          64

----------------------------------------------------------------------------------------

 
 
 KPOINTS: Auto-mesh                               

Automatic generation of k-mesh.
 Grid dimensions read from file:
 generate k-points for:    3    3    1

 Generating k-lattice:

  Cartesian coordinates                     Fractional coordinates (reciprocal lattice)
     0.040362091  0.000000000  0.000000000     0.333333333  0.000000000  0.000000000
     0.000000000  0.040362091  0.000000000     0.000000000  0.333333333  0.000000000
     0.000000000  0.000000000  0.042994895     0.000000000  0.000000000  1.000000000

  Length of vectors
     0.040362091  0.040362091  0.042994895

  Shift w.r.t. Gamma in fractional coordinates (k-lattice)
     0.000000000  0.000000000  0.000000000

 
 Subroutine IBZKPT returns following result:
 ===========================================
 
 Found      5 irreducible k-points:
 
 Following reciprocal coordinates:
            Coordinates               Weight
  0.000000  0.000000  0.000000      1.000000
  0.333333  0.000000  0.000000      2.000000
  0.000000  0.333333  0.000000      2.000000
  0.333333  0.333333  0.000000      2.000000
 -0.333333  0.333333  0.000000      2.000000
 
 Following cartesian coordinates:
            Coordinates               Weight
  0.000000  0.000000  0.000000      1.000000
  0.040362  0.000000  0.000000      2.000000
  0.000000  0.040362  0.000000      2.000000
  0.040362  0.040362  0.000000      2.000000
 -0.040362  0.040362  0.000000      2.000000
 


--------------------------------------------------------------------------------------------------------




 Dimension of arrays:
   k-points           NKPTS =      5   k-points in BZ     NKDIM =      5   number of bands    NBANDS=    300
   number of dos      NEDOS =    301   number of ions     NIONS =     64
   non local maximal  LDIM  =      6   non local SUM 2l+1 LMDIM =     18
   total plane-waves  NPLWV = 192000
   max r-space proj   IRMAX =   1790   max aug-charges    IRDMAX=   4510
   dimension x,y,z NGX =    40 NGY =   40 NGZ =  120
   dimension x,y,z NGXF=    80 NGYF=   80 NGZF=  240
   support grid    NGXF=    80 NGYF=   80 NGZF=  240
   ions per type =              24  32   8
   NGX,Y,Z   is equivalent  to a cutoff of   8.05,  8.05,  8.58 a.u.
   NGXF,Y,Z  is equivalent  to a cutoff of  16.10, 16.10, 17.15 a.u.

 SYSTEM =  unknown system                          
 POSCAR =  Ni  O                                   

 Startparameter for this run:
   NWRITE =      2    write-flag & timer
   PREC   = n         normal or accurate (medium, high low for compatibility)
   ISTART =      0    job   : 0-new  1-cont  2-samecut
   ICHARG =      2    charge: 1-file 2-atom 10-const
   ISPIN  =      2    spin polarized calculation?
   LNONCOLLINEAR =      F non collinear calculations
   LSORBIT =      F    spin-orbit coupling
   INIWAV =      1    electr: 0-lowe 1-rand  2-diag
   LASPH  =      T    aspherical Exc in radial PAW
 Electronic Relaxation 1
   ENCUT  =  400.0 eV  29.40 Ry    5.42 a.u.  13.47 13.47 37.93*2*pi/ulx,y,z
   ENINI  =  400.0     initial cutoff
   ENAUG  =  605.4 eV  augmentation charge cutoff
   NELM   =     60;   NELMIN=  2; NELMDL= -5     # of ELM steps 
   EDIFF  = 0.1E-04   stopping-criterion for ELM
   LREAL  =      T    real-space projection
   NLSPLINE    = F    spline interpolate recip. space projectors
   LCOMPAT=      F    compatible to vasp.4.4
   GGA_COMPAT  = T    GGA compatible to vasp.4.4-vasp.4.6
   LMAXPAW     = -100 max onsite density
   LMAXMIX     =    4 max onsite mixed and CHGCAR
   VOSKOWN=      0    Vosko Wilk Nusair interpolation
   ROPT   =   -0.00050  -0.00050  -0.00050
 Ionic relaxation
   EDIFFG = -.3E-01   stopping-criterion for IOM
   NSW    =    800    number of steps for IOM
   NBLOCK =      1;   KBLOCK =    800    inner block; outer block 
   IBRION =      2    ionic relax: 0-MD 1-quasi-New 2-CG
   NFREE  =      1    steps in history (QN), initial steepest desc. (CG)
   ISIF   =      2    stress and relaxation
   IWAVPR =     11    prediction:  0-non 1-charg 2-wave 3-comb
   ISYM   =      0    0-nonsym 1-usesym 2-fastsym
   LCORR  =      T    Harris-Foulkes like correction to forces

   POTIM  = 0.5000    time-step for ionic-motion
   TEIN   =    0.0    initial temperature
   TEBEG  =    0.0;   TEEND  =   0.0 temperature during run
   SMASS  =  -3.00    Nose mass-parameter (am)
   estimated Nose-frequenzy (Omega)   =  0.10E-29 period in steps = 0.13E+47 mass=  -0.156E-26a.u.
   SCALEE = 1.0000    scale energy and forces
   NPACO  =    256;   APACO  = 10.0  distance and # of slots for P.C.
   PSTRESS=    0.0 pullay stress

  Mass of Ions in am
   POMASS =  58.69 16.00 55.85
  Ionic Valenz
   ZVAL   =  10.00  6.00  8.00
  Atomic Wigner-Seitz radii
   RWIGS  =  -1.00 -1.00 -1.00
  virtual crystal weights 
   VCA    =   1.00  1.00  1.00
   NELECT =     496.0000    total number of electrons
   NUPDOWN=      -1.0000    fix difference up-down

 DOS related values:
   EMIN   =  10.00;   EMAX   =-10.00  energy-range for DOS
   EFERMI =   0.00
   ISMEAR =     0;   SIGMA  =   0.05  broadening in eV -4-tet -1-fermi 0-gaus

 Electronic relaxation 2 (details)
   IALGO  =     68    algorithm
   LDIAG  =      T    sub-space diagonalisation (order eigenvalues)
   LSUBROT=      F    optimize rotation matrix (better conditioning)
   TURBO    =      0    0=normal 1=particle mesh
   IRESTART =      0    0=no restart 2=restart with 2 vectors
   NREBOOT  =      0    no. of reboots
   NMIN     =      0    reboot dimension
   EREF     =   0.00    reference energy to select bands
   IMIX   =      4    mixing-type and parameters
     AMIX     =   0.40;   BMIX     =  1.00
     AMIX_MAG =   1.60;   BMIX_MAG =  1.00
     AMIN     =   0.10
     WC   =   100.;   INIMIX=   1;  MIXPRE=   1;  MAXMIX= -45

 Intra band minimization:
   WEIMIN = 0.0010     energy-eigenvalue tresh-hold
   EBREAK =  0.83E-08  absolut break condition
   DEPER  =   0.30     relativ break condition  

   TIME   =   0.40     timestep for ELM

  volume/ion in A,a.u.               =      24.79       167.27
  Fermi-wavevector in a.u.,A,eV,Ry     =   1.111146  2.099761 16.798358  1.234644
  Thomas-Fermi vector in A             =   2.247705
 
 Write flags
   LWAVE        =      F    write WAVECAR
   LDOWNSAMPLE  =      F    k-point downsampling of WAVECAR
   LCHARG       =      F    write CHGCAR
   LVTOT        =      F    write LOCPOT, total local potential
   LVHAR        =      F    write LOCPOT, Hartree potential only
   LELF         =      F    write electronic localiz. function (ELF)
   LORBIT       =     11    0 simple, 1 ext, 2 COOP (PROOUT), +10 PAW based schemes


 Dipole corrections
   LMONO  =      F    monopole corrections only (constant potential shift)
   LDIPOL =      F    correct potential (dipole corrections)
   IDIPOL =      3    1-x, 2-y, 3-z, 4-all directions 
   EPSILON=  1.0000000 bulk dielectric constant

 LDA+U is selected, type is set to LDAUTYPE =  2
   angular momentum for each species LDAUL =     2   -1    2
   U (eV)           for each species LDAUU =   5.3  0.0  4.0
   J (eV)           for each species LDAUJ =   0.0  0.0  0.0
 Exchange correlation treatment:
   GGA     =    PE    GGA type
   LEXCH   =     8    internal setting for exchange type
   LIBXC   =     F    Libxc                    
   VOSKOWN =     0    Vosko Wilk Nusair interpolation
   LHFCALC =     F    Hartree Fock is set to
   LHFONE  =     F    Hartree Fock one center treatment
   AEXX    =    0.0000 exact exchange contribution

 Linear response parameters
   LEPSILON=     F    determine dielectric tensor
   LRPA    =     F    only Hartree local field effects (RPA)
   LNABLA  =     F    use nabla operator in PAW spheres
   LVEL    =     F    velocity operator in full k-point grid
   CSHIFT  =0.1000    complex shift for real part using Kramers Kronig
   OMEGAMAX=  -1.0    maximum frequency
   DEG_THRESHOLD= 0.2000000E-02 threshold for treating states as degnerate
   RTIME   =   -0.100 relaxation time in fs
  (WPLASMAI=    0.000 imaginary part of plasma frequency in eV, 0.658/RTIME)
   DFIELD  = 0.0000000 0.0000000 0.0000000 field for delta impulse in time
 
  Optional k-point grid parameters
   LKPOINTS_OPT  =     F    use optional k-point grid
   KPOINTS_OPT_MODE=     1    mode for optional k-point grid
 
 Orbital magnetization related:
   ORBITALMAG=     F  switch on orbital magnetization
   LCHIMAG   =     F  perturbation theory with respect to B field
   DQ        =  0.001000  dq finite difference perturbation B field
   LLRAUG    =     F  two centre corrections for induced B field



--------------------------------------------------------------------------------------------------------


 conjugate gradient relaxation of ions
 charge density and potential will be updated during run
 spin polarized calculation
 RMM-DIIS sequential band-by-band and
  variant of blocked Davidson during initial phase
 perform sub-space diagonalisation
    before iterative eigenvector-optimisation
 modified Broyden-mixing scheme, WC =      100.0
 initial mixing is a Kerker type mixing with AMIX =  0.4000 and BMIX =      1.0000
 Hartree-type preconditioning will be used
 using additional bands           52
 real space projection scheme for non local part
 use partial core corrections
 calculate Harris-corrections to forces 
   (improved forces if not selfconsistent)
 use gradient corrections 
 use of overlap-Matrix (Vanderbilt PP)
 Gauss-broadening in eV      SIGMA  =   0.05


--------------------------------------------------------------------------------------------------------


  energy-cutoff  :      400.00
  volume of cell :     1586.33
      direct lattice vectors                 reciprocal lattice vectors
     8.258574486  0.000000000  0.000000000     0.121086272  0.000000000  0.000000000
     0.000000000  8.258574486  0.000000000     0.000000000  0.121086272  0.000000000
     0.000000000  0.000000000 23.258575439     0.000000000  0.000000000  0.042994895

  length of vectors
     8.258574486  8.258574486 23.258575439     0.121086272  0.121086272  0.042994895


 
 k-points in units of 2pi/SCALE and weight: Auto-mesh                               
   0.00000000  0.00000000  0.00000000       0.111
   0.04036209  0.00000000  0.00000000       0.222
   0.00000000  0.04036209  0.00000000       0.222
   0.04036209  0.04036209  0.00000000       0.222
  -0.04036209  0.04036209  0.00000000       0.222
 
 k-points in reciprocal lattice and weights: Auto-mesh                               
   0.00000000  0.00000000  0.00000000       0.111
   0.33333333  0.00000000  0.00000000       0.222
   0.00000000  0.33333333  0.00000000       0.222
   0.33333333  0.33333333  0.00000000       0.222
  -0.33333333  0.33333333  0.00000000       0.222
 
 position of ions in fractional coordinates (direct lattice) 
   0.99955380  0.99955410  0.32094011
   0.24955381  0.74955416  0.32094011
   0.74955380  0.24955414  0.32094011
   0.00026176  0.75026143  0.05189840
   0.50026178  0.25026143  0.05189840
   0.75026178  0.00026144  0.05189840
   0.24984810  0.24984813  0.14064920
   0.99984807  0.49984816  0.14064920
   0.74984813  0.74984813  0.14064920
   0.25022680  0.00022675  0.23211554
   0.50022680  0.75022674  0.23211554
   0.75022680  0.50022674  0.23211554
   0.24955380  0.24955413  0.32094011
   0.99955380  0.49955413  0.32094011
   0.49955380  0.99955416  0.32094011
   0.00026177  0.25026143  0.05189839
   0.25026178  0.00026143  0.05189840
   0.75026178  0.50026143  0.05189839
   0.99984807  0.99984813  0.14064918
   0.24984808  0.74984813  0.14064920
   0.49984810  0.49984816  0.14064918
   0.00022679  0.75022674  0.23211554
   0.50022680  0.25022674  0.23211554
   0.75022680  0.00022675  0.23211554
   0.00025594  0.00025579  0.05035364
   0.24972881  0.99972898  0.32250839
   0.99972880  0.24972899  0.32250839
   0.25025597  0.25025579  0.05035364
   0.00032145  0.00032137  0.23158075
   0.24980323  0.99980330  0.14127545
   0.99980319  0.24980329  0.14127545
   0.25032145  0.25032136  0.23158076
   0.00025592  0.50025582  0.05035363
   0.24972880  0.49972901  0.32250836
   0.99972880  0.74972898  0.32250839
   0.25025594  0.75025576  0.05035364
   0.00032147  0.50032139  0.23158076
   0.24980323  0.49980327  0.14127545
   0.99980319  0.74980330  0.14127545
   0.25032145  0.75032139  0.23158075
   0.50025600  0.00025579  0.05035362
   0.74972880  0.99972898  0.32250839
   0.49972880  0.24972902  0.32250836
   0.75025594  0.25025579  0.05035363
   0.50032145  0.00032137  0.23158076
   0.74980319  0.99980330  0.14127545
   0.49980322  0.24980329  0.14127545
   0.75032145  0.25032139  0.23158076
   0.50025594  0.50025576  0.05035364
   0.74972880  0.49972901  0.32250839
   0.49972883  0.74972904  0.32250839
   0.75025594  0.75025576  0.05035362
   0.50032145  0.50032139  0.23158075
   0.74980319  0.49980330  0.14127545
   0.49980322  0.74980330  0.14127547
   0.75032145  0.75032139  0.23158076
   0.49955380  0.49955413  0.32094011
   0.25026175  0.50026143  0.05189842
   0.49984810  0.99984813  0.14064918
   0.00022680  0.25022677  0.23211554
   0.74955380  0.74955416  0.32094011
   0.50026178  0.75026143  0.05189841
   0.74984813  0.24984816  0.14064918
   0.25022680  0.50022674  0.23211554
 
 position of ions in cartesian coordinates  (Angst):
   8.25488951  8.25489197  7.46460969
   2.06095877  6.19024884  7.46460969
   6.19024588  2.06096147  7.46460969
   0.00216174  6.19608987  1.20708297
   4.13144920  2.06680263  1.20708297
   6.19609282  0.00215911  1.20708279
   2.06338912  2.06338937  3.27130002
   8.25731974  4.12803324  3.27130002
   6.19267661  6.19267661  3.27130002
   2.06651663  0.00187265  5.39867673
   4.13116025  6.19580338  5.39867673
   6.19580387  4.13115976  5.39867673
   2.06095864  2.06096135  7.46460969
   8.25488951  4.12560497  7.46460969
   4.12560226  8.25489246  7.46460969
   0.00216181  2.06680263  1.20708271
   2.06680558  0.00215906  1.20708288
   6.19609282  4.13144625  1.20708271
   8.25731974  8.25732023  3.27129967
   2.06338900  6.19267661  3.27130002
   4.12803275  4.12803324  3.27129967
   0.00187300  6.19580338  5.39867673
   4.13116025  2.06651614  5.39867673
   6.19580387  0.00187265  5.39867673
   0.00211366  0.00211247  1.17115391
   2.06240401  8.25633623  7.50108583
   8.25633475  2.06240549  7.50108583
   2.06675759  2.06675611  1.17115399
   0.00265472  0.00265405  5.38623833
   2.06301858  8.25695006  3.28586572
   8.25694908  2.06301908  3.28586572
   2.06729832  2.06729758  5.38623867
   0.00211350  4.13139998  1.17115373
   2.06240389  4.12704923  7.50108513
   8.25633475  6.19169261  7.50108583
   2.06675734  6.19604311  1.17115399
   0.00265487  4.13194145  5.38623867
   2.06301858  4.12766257  3.28586572
   8.25694908  6.19230644  3.28586572
   2.06729832  6.19658507  5.38623833
   4.13140145  0.00211249  1.17115339
   6.19169113  8.25633623  7.50108583
   4.12704751  2.06240573  7.50108513
   6.19604458  2.06675611  1.17115373
   4.13194194  0.00265405  5.38623867
   6.19230546  8.25695006  3.28586572
   4.12766208  2.06301908  3.28586572
   6.19658556  2.06729783  5.38623867
   4.13140096  4.13139948  1.17115382
   6.19169113  4.12704923  7.50108583
   4.12704775  6.19169310  7.50108583
   6.19604458  6.19604311  1.17115356
   4.13194194  4.13194145  5.38623833
   6.19230546  4.12766282  3.28586572
   4.12766208  6.19230644  3.28586607
   6.19658556  6.19658507  5.38623867
   4.12560226  4.12560497  7.46460969
   2.06680534  4.13144625  1.20708323
   4.12803275  8.25732023  3.27129967
   0.00187301  2.06651638  5.39867673
   6.19024588  6.19024884  7.46460969
   4.13144920  6.19608987  1.20708305
   6.19267661  2.06338962  3.27129967
   2.06651663  4.13115976  5.39867673
 


--------------------------------------------------------------------------------------------------------


 k-point   1 :   0.0000 0.0000 0.0000  plane waves:   28835
 k-point   2 :   0.3333 0.0000 0.0000  plane waves:   28837
 k-point   3 :   0.0000 0.3333 0.0000  plane waves:   28837
 k-point   4 :   0.3333 0.3333 0.0000  plane waves:   28797
 k-point   5 :  -0.3333 0.3333 0.0000  plane waves:   28797

 maximum and minimum number of plane-waves per node :      5800     5743

 maximum number of plane-waves:     28837
 maximum index in each direction: 
   IXMAX=   13   IYMAX=   13   IZMAX=   37
   IXMIN=  -13   IYMIN=  -13   IZMIN=  -37


 real space projection operators:
  total allocation   :       8541.91 KBytes
  max/ min on nodes  :       1793.22       1643.78


 parallel 3D FFT for wavefunctions:
    minimum data exchange during FFTs selected (reduces bandwidth)
 parallel 3D FFT for charge:
    minimum data exchange during FFTs selected (reduces bandwidth)


 total amount of memory used by VASP MPI-rank0   119523. kBytes
=======================================================================

   base      :      30000. kBytes
   nonlr-proj:       4127. kBytes
   fftplans  :       3778. kBytes
   grid      :       9886. kBytes
   one-center:        404. kBytes
   wavefun   :      71328. kBytes
 
     INWAV:  cpu time      0.0000: real time      0.0003
 Broyden mixing: mesh for mixing (old mesh)
   NGX = 27   NGY = 27   NGZ = 75
  (NGX  = 80   NGY  = 80   NGZ  =240)
  gives a total of  54675 points

 initial charge density was supplied:
 charge density of overlapping atoms calculated
 number of electron     496.0000000 magnetization      -0.0000000
 keeping initial charge density in first step


--------------------------------------------------------------------------------------------------------


 Maximum index for non-local projection operator          368
 Maximum index for augmentation-charges          321 (set IRDMAX)


--------------------------------------------------------------------------------------------------------


 First call to EWALD:  gamma=   0.152
 Maximum number of real-space cells 4x 4x 2
 Maximum number of reciprocal cells 2x 2x 5

    FEWALD:  cpu time      0.0040: real time      0.0040


--------------------------------------- Iteration      1(   1)  ---------------------------------------


    POTLOK:  cpu time      0.0989: real time      0.0991
    SETDIJ:  cpu time      1.6967: real time      1.6968
     EDDAV:  cpu time     13.0398: real time     13.0411
       DOS:  cpu time      0.0028: real time      0.0028
    --------------------------------------------
      LOOP:  cpu time     14.8381: real time     14.8398

 eigenvalue-minimisations  :  6000
 total energy-change (2. order) : 0.5204263E+04  (-0.1920182E+05)
 number of electron     496.0000000 magnetization      -0.0000000
 augmentation part      496.0000000 magnetization      -0.0000000

 Free energy of the ion-electron system (eV)
  ---------------------------------------------------
  alpha Z        PSCENC =       830.52252633
  Ewald energy   TEWEN  =    228511.24919633
  -Hartree energ DENC   =   -271147.49212007
  -exchange      EXHF   =         0.00000000
  -V(xc)+E(xc)   XCENC  =      1687.58078968
  PAW double counting   =     38612.59811270   -39779.25867021
  entropy T*S    EENTRO =        -0.02990772
  eigenvalues    EBANDS =      2038.28615420
  atomic energy  EATOM  =     44450.80657341
  Solvation  Ediel_sol  =         0.00000000
  ---------------------------------------------------
  free energy    TOTEN  =      5204.26265464 eV

  energy without entropy =     5204.29256237  energy(sigma->0) =     5204.27760851


--------------------------------------------------------------------------------------------------------




--------------------------------------- Iteration      1(   2)  ---------------------------------------


     EDDAV:  cpu time     13.4697: real time     13.4725
       DOS:  cpu time      0.0029: real time      0.0029
    --------------------------------------------
      LOOP:  cpu time     13.4726: real time     13.4753

 eigenvalue-minimisations  :  6272
 total energy-change (2. order) :-0.4247658E+04  (-0.3918786E+04)
 number of electron     496.0000000 magnetization      -0.0000000
 augmentation part      496.0000000 magnetization      -0.0000000

 Free energy of the ion-electron system (eV)
  ---------------------------------------------------
  alpha Z        PSCENC =       830.52252633
  Ewald energy   TEWEN  =    228511.24919633
  -Hartree energ DENC   =   -271147.49212007
  -exchange      EXHF   =         0.00000000
  -V(xc)+E(xc)   XCENC  =      1687.58078968
  PAW double counting   =     38612.59811270   -39779.25867021
  entropy T*S    EENTRO =        -0.02134134
  eigenvalues    EBANDS =     -2209.38051357
  atomic energy  EATOM  =     44450.80657341
  Solvation  Ediel_sol  =         0.00000000
  ---------------------------------------------------
  free energy    TOTEN  =       956.60455326 eV

  energy without entropy =      956.62589460  energy(sigma->0) =      956.61522393


--------------------------------------------------------------------------------------------------------




--------------------------------------- Iteration      1(   3)  ---------------------------------------


     EDDAV:  cpu time     17.6427: real time     17.6517
       DOS:  cpu time      0.0023: real time      0.0023
    --------------------------------------------
      LOOP:  cpu time     17.6451: real time     17.6541

 eigenvalue-minimisations  :  8448
 total energy-change (2. order) :-0.1186721E+04  (-0.1114923E+04)
 number of electron     496.0000000 magnetization      -0.0000000
 augmentation part      496.0000000 magnetization      -0.0000000

 Free energy of the ion-electron system (eV)
  ---------------------------------------------------
  alpha Z        PSCENC =       830.52252633
  Ewald energy   TEWEN  =    228511.24919633
  -Hartree energ DENC   =   -271147.49212007
  -exchange      EXHF   =         0.00000000
  -V(xc)+E(xc)   XCENC  =      1687.58078968
  PAW double counting   =     38612.59811270   -39779.25867021
  entropy T*S    EENTRO =        -0.05678112
  eigenvalues    EBANDS =     -3396.06642698
  atomic energy  EATOM  =     44450.80657341
  Solvation  Ediel_sol  =         0.00000000
  ---------------------------------------------------
  free energy    TOTEN  =      -230.11679993 eV

  energy without entropy =     -230.06001881  energy(sigma->0) =     -230.08840937


--------------------------------------------------------------------------------------------------------




--------------------------------------- Iteration      1(   4)  ---------------------------------------


     EDDAV:  cpu time     15.5365: real time     15.5398
       DOS:  cpu time      0.0026: real time      0.0026
    --------------------------------------------
      LOOP:  cpu time     15.5391: real time     15.5424

 eigenvalue-minimisations  :  7528
 total energy-change (2. order) :-0.1450647E+03  (-0.1394412E+03)
 number of electron     496.0000000 magnetization      -0.0000000
 augmentation part      496.0000000 magnetization      -0.0000000

 Free energy of the ion-electron system (eV)
  ---------------------------------------------------
  alpha Z        PSCENC =       830.52252633
  Ewald energy   TEWEN  =    228511.24919633
  -Hartree energ DENC   =   -271147.49212007
  -exchange      EXHF   =         0.00000000
  -V(xc)+E(xc)   XCENC  =      1687.58078968
  PAW double counting   =     38612.59811270   -39779.25867021
  entropy T*S    EENTRO =        -0.07094369
  eigenvalues    EBANDS =     -3541.11696909
  atomic energy  EATOM  =     44450.80657341
  Solvation  Ediel_sol  =         0.00000000
  ---------------------------------------------------
  free energy    TOTEN  =      -375.18150461 eV

  energy without entropy =     -375.11056092  energy(sigma->0) =     -375.14603277


--------------------------------------------------------------------------------------------------------




--------------------------------------- Iteration      1(   5)  ---------------------------------------


     EDDAV:  cpu time     17.1419: real time     17.1470
       DOS:  cpu time      0.0025: real time      0.0025
    CHARGE:  cpu time      0.4304: real time      0.4304
    MIXING:  cpu time      0.0030: real time      0.0031
    --------------------------------------------
      LOOP:  cpu time     17.5779: real time     17.5830

 eigenvalue-minimisations  :  8512
 total energy-change (2. order) :-0.6232187E+01  (-0.6166974E+01)
 number of electron     495.9999738 magnetization       0.0030216
 augmentation part      197.1239526 magnetization      -0.0131095

 Broyden mixing:
  rms(total) = 0.93104E+01    rms(broyden)= 0.92902E+01
  rms(prec ) = 0.95885E+01
  weight for this iteration     100.00

 Free energy of the ion-electron system (eV)
  ---------------------------------------------------
  alpha Z        PSCENC =       830.52252633
  Ewald energy   TEWEN  =    228511.24919633
  -Hartree energ DENC   =   -271147.49212007
  -exchange      EXHF   =         0.00000000
  -V(xc)+E(xc)   XCENC  =      1687.58078968
  PAW double counting   =     38612.59811270   -39779.25867021
  entropy T*S    EENTRO =        -0.07000913
  eigenvalues    EBANDS =     -3547.35009049
  atomic energy  EATOM  =     44450.80657341
  Solvation  Ediel_sol  =         0.00000000
  ---------------------------------------------------
  free energy    TOTEN  =      -381.41369144 eV

  energy without entropy =     -381.34368231  energy(sigma->0) =     -381.37868688


--------------------------------------------------------------------------------------------------------




--------------------------------------- Iteration      1(   6)  ---------------------------------------


    POTLOK:  cpu time      0.0960: real time      0.0975
    SETDIJ:  cpu time      1.7143: real time      1.7144
    EDDIAG:  cpu time      1.9554: real time      1.9556
  RMM-DIIS:  cpu time      5.5535: real time      5.5541
    ORTHCH:  cpu time      0.5663: real time      0.5663
       DOS:  cpu time      0.0026: real time      0.0026
    CHARGE:  cpu time      0.4234: real time      0.4234
    MIXING:  cpu time      0.0031: real time      0.0032
    --------------------------------------------
      LOOP:  cpu time     10.3146: real time     10.3170

 eigenvalue-minimisations  :  6078
 total energy-change (2. order) : 0.4458788E+02  (-0.6867706E+02)
 number of electron     495.9999610 magnetization       0.0179647
 augmentation part      210.9510675 magnetization      -0.2224307

 Broyden mixing:
  rms(total) = 0.14403E+02    rms(broyden)= 0.14399E+02
  rms(prec ) = 0.14507E+02
  weight for this iteration     100.00

 eigenvalues of (default mixing * dielectric matrix)
  average eigenvalue GAMMA=   0.1721
  0.1721

 Free energy of the ion-electron system (eV)
  ---------------------------------------------------
  alpha Z        PSCENC =       830.52252633
  Ewald energy   TEWEN  =    228511.24919633
  -Hartree energ DENC   =   -271196.06936327
  -exchange      EXHF   =         0.00000000
  -V(xc)+E(xc)   XCENC  =      1727.71427212
  PAW double counting   =     41998.53668950   -43002.45948153
  entropy T*S    EENTRO =        -0.08100423
  eigenvalues    EBANDS =     -3657.04522183
  atomic energy  EATOM  =     44450.80657341
  Solvation  Ediel_sol  =         0.00000000
  ---------------------------------------------------
  free energy    TOTEN  =      -336.82581317 eV

  energy without entropy =     -336.74480893  energy(sigma->0) =     -336.78531105


--------------------------------------------------------------------------------------------------------




--------------------------------------- Iteration      1(   7)  ---------------------------------------


    POTLOK:  cpu time      0.0982: real time      0.0997
    SETDIJ:  cpu time      1.7136: real time      1.7137
    EDDIAG:  cpu time      1.9545: real time      1.9546
  RMM-DIIS:  cpu time      6.7719: real time      6.7724
    ORTHCH:  cpu time      0.5665: real time      0.5665
       DOS:  cpu time      0.0022: real time      0.0022
    CHARGE:  cpu time      0.4208: real time      0.4208
    MIXING:  cpu time      0.0032: real time      0.0032
    --------------------------------------------
      LOOP:  cpu time     11.5308: real time     11.5331

 eigenvalue-minimisations  :  7421
 total energy-change (2. order) :-0.6040171E+01  (-0.1585354E+02)
 number of electron     495.9999736 magnetization      -0.1368838
 augmentation part      206.3809335 magnetization       0.3606334

 Broyden mixing:
  rms(total) = 0.88654E+01    rms(broyden)= 0.88624E+01
  rms(prec ) = 0.89867E+01
  weight for this iteration     100.00

 eigenvalues of (default mixing * dielectric matrix)
  average eigenvalue GAMMA=   0.3788
  0.3788  0.3788

 Free energy of the ion-electron system (eV)
  ---------------------------------------------------
  alpha Z        PSCENC =       830.52252633
  Ewald energy   TEWEN  =    228511.24919633
  -Hartree energ DENC   =   -271250.79957936
  -exchange      EXHF   =         0.00000000
  -V(xc)+E(xc)   XCENC  =      1718.63616589
  PAW double counting   =     42722.48663701   -43768.06319022
  entropy T*S    EENTRO =        -0.02014845
  eigenvalues    EBANDS =     -3557.68416504
  atomic energy  EATOM  =     44450.80657341
  Solvation  Ediel_sol  =         0.00000000
  ---------------------------------------------------
  free energy    TOTEN  =      -342.86598411 eV

  energy without entropy =     -342.84583566  energy(sigma->0) =     -342.85590988


--------------------------------------------------------------------------------------------------------




--------------------------------------- Iteration      1(   8)  ---------------------------------------


    POTLOK:  cpu time      0.0981: real time      0.1020
    SETDIJ:  cpu time      1.7194: real time      1.7195
    EDDIAG:  cpu time      1.9520: real time      1.9524
  RMM-DIIS:  cpu time      5.9990: real time      6.0069
    ORTHCH:  cpu time      0.5670: real time      0.5671
       DOS:  cpu time      0.0022: real time      0.0022
    CHARGE:  cpu time      0.4134: real time      0.4134
    MIXING:  cpu time      0.0035: real time      0.0034
    --------------------------------------------
      LOOP:  cpu time     10.7546: real time     10.7669

 eigenvalue-minimisations  :  6575
 total energy-change (2. order) :-0.6564062E+02  (-0.7179037E+01)
 number of electron     495.9999751 magnetization      -0.0769871
 augmentation part      205.7215440 magnetization      -1.1374712

 Broyden mixing:
  rms(total) = 0.14398E+02    rms(broyden)= 0.14396E+02
  rms(prec ) = 0.15054E+02
  weight for this iteration     100.00

 eigenvalues of (default mixing * dielectric matrix)
  average eigenvalue GAMMA=   0.3780
  0.4733  0.4733  0.1874

 Free energy of the ion-electron system (eV)
  ---------------------------------------------------
  alpha Z        PSCENC =       830.52252633
  Ewald energy   TEWEN  =    228511.24919633
  -Hartree energ DENC   =   -271161.56698007
  -exchange      EXHF   =         0.00000000
  -V(xc)+E(xc)   XCENC  =      1717.95299244
  PAW double counting   =     44009.44528257   -45095.74883490
  entropy T*S    EENTRO =        -0.00652024
  eigenvalues    EBANDS =     -3671.16083755
  atomic energy  EATOM  =     44450.80657341
  Solvation  Ediel_sol  =         0.00000000
  ---------------------------------------------------
  free energy    TOTEN  =      -408.50660167 eV

  energy without entropy =     -408.50008144  energy(sigma->0) =     -408.50334155


--------------------------------------------------------------------------------------------------------




--------------------------------------- Iteration      1(   9)  ---------------------------------------


    POTLOK:  cpu time      0.0980: real time      0.0996
    SETDIJ:  cpu time      1.7211: real time      1.7211
    EDDIAG:  cpu time      1.9553: real time      1.9554
  RMM-DIIS:  cpu time      5.6336: real time      5.6341
    ORTHCH:  cpu time      0.5667: real time      0.5668
       DOS:  cpu time      0.0022: real time      0.0022
    CHARGE:  cpu time      0.4132: real time      0.4132
    MIXING:  cpu time      0.0037: real time      0.0037
    --------------------------------------------
      LOOP:  cpu time     10.3938: real time     10.3962

 eigenvalue-minimisations  :  6135
 total energy-change (2. order) : 0.6841695E+02  (-0.5368649E+01)
 number of electron     495.9999753 magnetization      -0.2923704
 augmentation part      204.9902442 magnetization       0.2293448

 Broyden mixing:
  rms(total) = 0.67977E+01    rms(broyden)= 0.67942E+01
  rms(prec ) = 0.68960E+01
  weight for this iteration     100.00

 eigenvalues of (default mixing * dielectric matrix)
  average eigenvalue GAMMA=   0.5716
  0.8768  0.8768  0.3698  0.1630

 Free energy of the ion-electron system (eV)
  ---------------------------------------------------
  alpha Z        PSCENC =       830.52252633
  Ewald energy   TEWEN  =    228511.24919633
  -Hartree energ DENC   =   -271214.39939139
  -exchange      EXHF   =         0.00000000
  -V(xc)+E(xc)   XCENC  =      1708.61420028
  PAW double counting   =     44740.70596773   -45848.38048359
  entropy T*S    EENTRO =        -0.00982898
  eigenvalues    EBANDS =     -3519.19841148
  atomic energy  EATOM  =     44450.80657341
  Solvation  Ediel_sol  =         0.00000000
  ---------------------------------------------------
  free energy    TOTEN  =      -340.08965136 eV

  energy without entropy =     -340.07982238  energy(sigma->0) =     -340.08473687


--------------------------------------------------------------------------------------------------------




--------------------------------------- Iteration      1(  10)  ---------------------------------------


    POTLOK:  cpu time      0.0978: real time      0.0995
    SETDIJ:  cpu time      1.7210: real time      1.7211
    EDDIAG:  cpu time      1.9522: real time      1.9523
  RMM-DIIS:  cpu time      5.8674: real time      5.8678
    ORTHCH:  cpu time      0.5661: real time      0.5662
       DOS:  cpu time      0.0022: real time      0.0022
    CHARGE:  cpu time      0.4162: real time      0.4165
    MIXING:  cpu time      0.0039: real time      0.0039
    --------------------------------------------
      LOOP:  cpu time     10.6269: real time     10.6294

 eigenvalue-minimisations  :  6418
 total energy-change (2. order) :-0.3510440E+02  (-0.2207423E+01)
 number of electron     495.9999717 magnetization      -0.2840589
 augmentation part      204.2453177 magnetization      -1.8052315

 Broyden mixing:
  rms(total) = 0.10746E+02    rms(broyden)= 0.10744E+02
  rms(prec ) = 0.11560E+02
  weight for this iteration     100.00

 eigenvalues of (default mixing * dielectric matrix)
  average eigenvalue GAMMA=   0.6031
  1.4952  0.5057  0.5057  0.3594  0.1497

 Free energy of the ion-electron system (eV)
  ---------------------------------------------------
  alpha Z        PSCENC =       830.52252633
  Ewald energy   TEWEN  =    228511.24919633
  -Hartree energ DENC   =   -271199.29205450
  -exchange      EXHF   =         0.00000000
  -V(xc)+E(xc)   XCENC  =      1710.92959932
  PAW double counting   =     47251.32798829   -48404.49429286
  entropy T*S    EENTRO =        -0.00010375
  eigenvalues    EBANDS =     -3526.24348247
  atomic energy  EATOM  =     44450.80657341
  Solvation  Ediel_sol  =         0.00000000
  ---------------------------------------------------
  free energy    TOTEN  =      -375.19404991 eV

  energy without entropy =     -375.19394616  energy(sigma->0) =     -375.19399803


--------------------------------------------------------------------------------------------------------




--------------------------------------- Iteration      1(  11)  ---------------------------------------


    POTLOK:  cpu time      0.0975: real time      0.1015
    SETDIJ:  cpu time      1.7216: real time      1.7218
    EDDIAG:  cpu time      1.9542: real time      1.9544
  RMM-DIIS:  cpu time      5.7151: real time      5.7179
    ORTHCH:  cpu time      0.5671: real time      0.5672
       DOS:  cpu time      0.0021: real time      0.0021
    CHARGE:  cpu time      0.4181: real time      0.4182
    MIXING:  cpu time      0.0041: real time      0.0041
    --------------------------------------------
      LOOP:  cpu time     10.4798: real time     10.4873

 eigenvalue-minimisations  :  6248
 total energy-change (2. order) : 0.3018323E+02  (-0.2311588E+01)
 number of electron     495.9999821 magnetization      -0.1723960
 augmentation part      204.0038505 magnetization      -2.2711869

 Broyden mixing:
  rms(total) = 0.68833E+01    rms(broyden)= 0.68796E+01
  rms(prec ) = 0.71937E+01
  weight for this iteration     100.00

 eigenvalues of (default mixing * dielectric matrix)
  average eigenvalue GAMMA=   0.5608
  1.6380  0.5204  0.4292  0.4292  0.1554  0.1928

 Free energy of the ion-electron system (eV)
  ---------------------------------------------------
  alpha Z        PSCENC =       830.52252633
  Ewald energy   TEWEN  =    228511.24919633
  -Hartree energ DENC   =   -271281.04349746
  -exchange      EXHF   =         0.00000000
  -V(xc)+E(xc)   XCENC  =      1707.92097912
  PAW double counting   =     48060.16528360   -49234.25708468
  entropy T*S    EENTRO =        -0.02052972
  eigenvalues    EBANDS =     -3390.35426673
  atomic energy  EATOM  =     44450.80657341
  Solvation  Ediel_sol  =         0.00000000
  ---------------------------------------------------
  free energy    TOTEN  =      -345.01081981 eV

  energy without entropy =     -344.99029009  energy(sigma->0) =     -345.00055495


--------------------------------------------------------------------------------------------------------




--------------------------------------- Iteration      1(  12)  ---------------------------------------


    POTLOK:  cpu time      0.0975: real time      0.0990
    SETDIJ:  cpu time      1.7221: real time      1.7222
    EDDIAG:  cpu time      1.9628: real time      1.9630
  RMM-DIIS:  cpu time      5.6533: real time      5.6538
    ORTHCH:  cpu time      0.5665: real time      0.5666
       DOS:  cpu time      0.0022: real time      0.0022
    CHARGE:  cpu time      0.4170: real time      0.4171
    MIXING:  cpu time      0.0043: real time      0.0043
    --------------------------------------------
      LOOP:  cpu time     10.4259: real time     10.4283

 eigenvalue-minimisations  :  6208
 total energy-change (2. order) : 0.8488082E+01  (-0.1023790E+01)
 number of electron     495.9999758 magnetization      -0.2720240
 augmentation part      204.1311728 magnetization      -0.0315525

 Broyden mixing:
  rms(total) = 0.43880E+01    rms(broyden)= 0.43861E+01
  rms(prec ) = 0.46491E+01
  weight for this iteration     100.00

 eigenvalues of (default mixing * dielectric matrix)
  average eigenvalue GAMMA=   0.5522
  1.7770  0.5843  0.4022  0.4022  0.3347  0.1478  0.2171

 Free energy of the ion-electron system (eV)
  ---------------------------------------------------
  alpha Z        PSCENC =       830.52252633
  Ewald energy   TEWEN  =    228511.24919633
  -Hartree energ DENC   =   -271319.95819121
  -exchange      EXHF   =         0.00000000
  -V(xc)+E(xc)   XCENC  =      1707.38010832
  PAW double counting   =     48375.87516221   -49557.15466706
  entropy T*S    EENTRO =        -0.01797123
  eigenvalues    EBANDS =     -3335.22547441
  atomic energy  EATOM  =     44450.80657341
  Solvation  Ediel_sol  =         0.00000000
  ---------------------------------------------------
  free energy    TOTEN  =      -336.52273731 eV

  energy without entropy =     -336.50476608  energy(sigma->0) =     -336.51375170


--------------------------------------------------------------------------------------------------------




--------------------------------------- Iteration      1(  13)  ---------------------------------------


    POTLOK:  cpu time      0.0976: real time      0.0991
    SETDIJ:  cpu time      1.7222: real time      1.7223
    EDDIAG:  cpu time      1.9548: real time      1.9549
  RMM-DIIS:  cpu time      5.7766: real time      5.7771
    ORTHCH:  cpu time      0.5670: real time      0.5670
       DOS:  cpu time      0.0021: real time      0.0021
    CHARGE:  cpu time      0.4155: real time      0.4156
    MIXING:  cpu time      0.0046: real time      0.0046
    --------------------------------------------
      LOOP:  cpu time     10.5403: real time     10.5426

 eigenvalue-minimisations  :  6333
 total energy-change (2. order) :-0.6830712E+00  (-0.7432535E+00)
 number of electron     495.9999788 magnetization      -0.1806737
 augmentation part      204.2200989 magnetization      -2.4820358

 Broyden mixing:
  rms(total) = 0.48865E+01    rms(broyden)= 0.48857E+01
  rms(prec ) = 0.51836E+01
  weight for this iteration     100.00

 eigenvalues of (default mixing * dielectric matrix)
  average eigenvalue GAMMA=   0.5693
  1.9288  0.7185  0.5356  0.5356  0.3557  0.1742  0.1532  0.1532

 Free energy of the ion-electron system (eV)
  ---------------------------------------------------
  alpha Z        PSCENC =       830.52252633
  Ewald energy   TEWEN  =    228511.24919633
  -Hartree energ DENC   =   -271362.14852037
  -exchange      EXHF   =         0.00000000
  -V(xc)+E(xc)   XCENC  =      1709.12781345
  PAW double counting   =     48566.47389797   -49750.88250929
  entropy T*S    EENTRO =        -0.03318369
  eigenvalues    EBANDS =     -3292.32160269
  atomic energy  EATOM  =     44450.80657341
  Solvation  Ediel_sol  =         0.00000000
  ---------------------------------------------------
  free energy    TOTEN  =      -337.20580854 eV

  energy without entropy =     -337.17262485  energy(sigma->0) =     -337.18921669


--------------------------------------------------------------------------------------------------------




--------------------------------------- Iteration      1(  14)  ---------------------------------------


    POTLOK:  cpu time      0.0972: real time      0.1013
    SETDIJ:  cpu time      1.7218: real time      1.7219
    EDDIAG:  cpu time      1.9540: real time      1.9542
  RMM-DIIS:  cpu time      5.8206: real time      5.8230
    ORTHCH:  cpu time      0.5683: real time      0.5685
       DOS:  cpu time      0.0023: real time      0.0023
    CHARGE:  cpu time      0.4224: real time      0.4224
    MIXING:  cpu time      0.0049: real time      0.0049
    --------------------------------------------
      LOOP:  cpu time     10.5914: real time     10.5986

 eigenvalue-minimisations  :  6384
 total energy-change (2. order) : 0.4913696E+01  (-0.4500432E+00)
 number of electron     495.9999837 magnetization      -0.1448747
 augmentation part      204.1101223 magnetization      -1.1254643

 Broyden mixing:
  rms(total) = 0.26651E+01    rms(broyden)= 0.26635E+01
  rms(prec ) = 0.28632E+01
  weight for this iteration     100.00

 eigenvalues of (default mixing * dielectric matrix)
  average eigenvalue GAMMA=   0.5620
  2.0314  0.6507  0.6507  0.4668  0.4668  0.3358  0.1525  0.1514  0.1514

 Free energy of the ion-electron system (eV)
  ---------------------------------------------------
  alpha Z        PSCENC =       830.52252633
  Ewald energy   TEWEN  =    228511.24919633
  -Hartree energ DENC   =   -271421.64717566
  -exchange      EXHF   =         0.00000000
  -V(xc)+E(xc)   XCENC  =      1711.26244968
  PAW double counting   =     48724.59177961   -49911.77943876
  entropy T*S    EENTRO =        -0.02581568
  eigenvalues    EBANDS =     -3227.27220803
  atomic energy  EATOM  =     44450.80657341
  Solvation  Ediel_sol  =         0.00000000
  ---------------------------------------------------
  free energy    TOTEN  =      -332.29211277 eV

  energy without entropy =     -332.26629709  energy(sigma->0) =     -332.27920493


--------------------------------------------------------------------------------------------------------




--------------------------------------- Iteration      1(  15)  ---------------------------------------


    POTLOK:  cpu time      0.0975: real time      0.0990
    SETDIJ:  cpu time      1.7222: real time      1.7223
    EDDIAG:  cpu time      1.9596: real time      1.9598
  RMM-DIIS:  cpu time      5.8113: real time      5.8117
    ORTHCH:  cpu time      0.5671: real time      0.5671
       DOS:  cpu time      0.0022: real time      0.0022
    CHARGE:  cpu time      0.4164: real time      0.4164
[...]
   0.177E+01 -.138E+01 0.190E+04   -.147E+01 0.171E+01 -.190E+04   -.298E+00 -.324E+00 0.625E+01   0.149E-02 0.248E-02 -.170E-02
   -.293E+01 -.282E+01 -.189E+04   0.373E+01 0.273E+01 0.190E+04   -.798E+00 0.940E-01 -.619E+01   0.177E-02 -.355E-02 0.126E-02
   0.675E+00 -.132E+02 -.189E+04   -.861E+00 0.129E+02 0.190E+04   0.188E+00 0.218E+00 -.724E+01   -.181E-02 -.148E-02 0.170E-04
   -.142E+02 -.406E+02 0.190E+04   0.147E+02 0.403E+02 -.191E+04   -.477E+00 0.239E+00 0.647E+01   0.174E-02 -.780E-03 0.102E-02
   0.786E+01 -.582E+02 -.606E+03   -.736E+01 0.587E+02 0.605E+03   -.489E+00 -.428E+00 0.135E+01   -.690E-03 -.180E-02 0.127E-02
   -.611E+02 -.603E+01 0.614E+03   0.614E+02 0.635E+01 -.612E+03   -.342E+00 -.313E+00 -.155E+01   -.853E-03 -.137E-02 -.377E-02
   0.455E+02 -.109E+02 0.587E+03   -.461E+02 0.104E+02 -.586E+03   0.577E+00 0.420E+00 -.112E+01   -.159E-02 -.715E-03 0.163E-02
   0.315E+02 -.649E+02 -.612E+03   -.304E+02 0.654E+02 0.611E+03   -.112E+01 -.507E+00 0.166E+01   -.780E-03 -.135E-03 -.107E-02
   -.382E+02 0.201E+01 0.189E+04   0.382E+02 -.216E+01 -.190E+04   -.611E-01 0.155E+00 0.608E+01   0.471E-03 -.152E-02 0.329E-03
   -.372E+02 0.270E+01 -.189E+04   0.359E+02 -.274E+01 0.190E+04   0.129E+01 0.405E-01 -.680E+01   -.220E-02 0.247E-02 -.321E-02
   0.359E+02 0.150E+02 -.189E+04   -.355E+02 -.148E+02 0.190E+04   -.489E+00 -.178E+00 -.611E+01   0.177E-02 0.128E-02 -.969E-03
   -.511E+02 0.386E+02 0.190E+04   0.501E+02 -.382E+02 -.190E+04   0.103E+01 -.381E+00 0.544E+01   -.954E-03 -.418E-03 -.136E-02
   -.359E+02 0.594E+02 -.619E+03   0.351E+02 -.598E+02 0.618E+03   0.768E+00 0.327E+00 0.125E+01   -.556E-03 0.138E-04 -.731E-03
   -.111E+02 0.434E+01 0.623E+03   0.113E+02 -.471E+01 -.623E+03   -.181E+00 0.359E+00 -.352E+00   -.552E-03 -.373E-03 0.319E-02
   -.493E+01 0.115E+02 0.610E+03   0.468E+01 -.111E+02 -.608E+03   0.245E+00 -.358E+00 -.169E+01   0.217E-02 -.369E-03 -.747E-03
   -.125E+02 0.645E+02 -.607E+03   0.125E+02 -.649E+02 0.605E+03   0.739E-01 0.403E+00 0.152E+01   -.957E-03 -.186E-02 0.123E-02
   -.227E+01 0.518E+02 0.189E+04   0.215E+01 -.525E+02 -.190E+04   0.115E+00 0.693E+00 0.703E+01   -.448E-04 0.569E-03 0.198E-02
   0.348E+01 0.348E+02 -.189E+04   -.431E+01 -.343E+02 0.190E+04   0.834E+00 -.514E+00 -.650E+01   -.172E-02 0.118E-02 0.172E-02
   0.395E+00 -.647E+02 -.189E+04   -.368E+00 0.653E+02 0.190E+04   -.284E-01 -.588E+00 -.586E+01   0.248E-02 -.341E-02 0.346E-02
   0.123E+02 -.161E+01 0.189E+04   -.128E+02 0.181E+01 -.189E+04   0.466E+00 -.198E+00 0.731E+01   -.443E-03 0.276E-02 -.274E-02
   -.766E+01 -.573E+01 -.579E+03   0.721E+01 0.570E+01 0.578E+03   0.444E+00 0.399E-01 0.140E+01   0.453E-03 -.151E-02 -.293E-02
   0.618E+02 -.461E+02 0.612E+03   -.623E+02 0.447E+02 -.611E+03   0.515E+00 0.139E+01 -.143E+01   0.695E-03 0.720E-03 0.641E-03
   -.463E+02 0.307E+02 0.600E+03   0.469E+02 -.298E+02 -.599E+03   -.551E+00 -.882E+00 -.101E+01   0.158E-02 -.253E-03 -.218E-02
   -.328E+02 -.124E+02 -.598E+03   0.318E+02 0.124E+02 0.597E+03   0.984E+00 -.118E-01 0.131E+01   0.154E-02 -.152E-02 -.637E-03
   0.364E+02 -.533E+02 0.188E+04   -.362E+02 0.544E+02 -.189E+04   -.239E+00 -.104E+01 0.563E+01   0.213E-03 -.376E-04 0.115E-02
   0.386E+02 -.305E+02 -.189E+04   -.377E+02 0.295E+02 0.189E+04   -.953E+00 0.923E+00 -.530E+01   0.187E-02 -.165E-02 0.277E-02
   -.347E+02 0.660E+02 -.189E+04   0.340E+02 -.669E+02 0.189E+04   0.676E+00 0.897E+00 -.558E+01   -.488E-03 0.106E-02 -.293E-02
   0.513E+02 -.405E-01 0.189E+04   -.500E+02 0.885E-02 -.189E+04   -.127E+01 0.354E-01 0.574E+01   0.169E-02 -.607E-03 -.596E-03
   0.362E+02 0.643E+01 -.640E+03   -.352E+02 -.627E+01 0.641E+03   -.970E+00 -.162E+00 -.288E+00   -.158E-02 0.135E-03 -.980E-03
   0.111E+02 0.473E+02 0.599E+03   -.113E+02 -.461E+02 -.598E+03   0.191E+00 -.117E+01 -.129E+01   0.609E-03 0.660E-03 -.592E-02
   0.412E+01 -.293E+02 0.645E+03   -.393E+01 0.279E+02 -.645E+03   -.179E+00 0.135E+01 0.245E+00   -.300E-02 0.146E-02 0.997E-03
   0.126E+02 0.107E+02 -.624E+03   -.122E+02 -.106E+02 0.624E+03   -.368E+00 -.152E+00 -.112E+00   0.769E-04 0.658E-03 0.950E-03
   -.559E+01 -.140E+02 -.251E+04   0.531E+01 0.139E+02 0.251E+04   0.282E+00 0.466E-01 0.274E+01   -.544E-04 0.182E-03 0.153E-02
   -.232E+02 -.250E+02 0.252E+04   0.230E+02 0.245E+02 -.251E+04   0.192E+00 0.512E+00 -.365E+01   -.404E-03 0.205E-03 -.127E-02
   -.222E+02 -.465E+01 0.861E+03   0.218E+02 0.450E+01 -.861E+03   0.366E+00 0.154E+00 0.298E+00   0.131E-03 0.577E-03 -.168E-03
   0.335E+01 -.349E+02 -.814E+03   -.333E+01 0.346E+02 0.815E+03   -.168E-01 0.363E+00 -.691E+00   -.959E-03 -.606E-04 -.806E-03
   0.186E+02 0.310E+02 -.251E+04   -.183E+02 -.305E+02 0.251E+04   -.211E+00 -.502E+00 0.259E+01   -.232E-04 0.636E-03 0.702E-04
   0.147E+02 0.813E+01 0.251E+04   -.146E+02 -.808E+01 -.251E+04   -.135E+00 -.399E-01 -.281E+01   -.448E-03 -.519E-03 -.215E-02
   0.174E+02 0.849E+01 0.805E+03   -.172E+02 -.837E+01 -.806E+03   -.236E+00 -.118E+00 0.100E+01   -.315E-03 -.206E-03 0.259E-02
   -.358E+01 0.268E+02 -.853E+03   0.395E+01 -.264E+02 0.853E+03   -.375E+00 -.355E+00 0.263E+00   -.576E-03 0.258E-02 -.966E-03
 -----------------------------------------------------------------------------------------------
   0.693E+00 -.784E+00 -.149E+00   0.102E-11 0.348E-12 0.136E-11   -.669E+00 0.781E+00 0.297E+00   0.295E-02 -.803E-02 -.107E-01
 
 
 POSITION                                       TOTAL-FORCE (eV/Angst)
 -----------------------------------------------------------------------------------
      0.00219      0.00033      7.50764        -0.007995      0.000063     -0.000588
      2.05300      6.20467      7.50359         0.005392     -0.002117     -0.012265
      6.19571      2.04340      7.53733        -0.000247      0.009963      0.000817
      0.00067      6.20491      1.17398        -0.003123     -0.006516     -0.009370
      4.14027      2.06236      1.13039         0.002163     -0.005226     -0.001184
      6.20349      0.01889      1.14440         0.000975     -0.000721     -0.009171
      2.05998      2.06785      3.23016         0.002093      0.001314     -0.000144
      0.00978      4.13529      3.23629        -0.006562      0.003828     -0.002239
      6.19514      6.18965      3.25521         0.010220     -0.009291     -0.000605
      2.06685     -0.00712      5.41921         0.000130     -0.008595      0.000868
      4.13726      6.20283      5.43013        -0.006603      0.007609     -0.000022
      6.18455      4.14741      5.42928         0.000816      0.009919     -0.001305
      2.05285      2.04496      7.53296         0.000553     -0.008046      0.001440
      0.00137      4.12307      7.53584        -0.012161     -0.011095     -0.004685
      4.11979     -0.00213      7.51413         0.000490      0.000485     -0.007296
      0.00315      2.06309      1.14389         0.004262      0.007623     -0.003051
      2.06366      0.02208      1.15925         0.010067     -0.008969      0.004404
      6.20424      4.11670      1.15793        -0.004270      0.008021      0.003094
      0.00529      8.25294      3.24773        -0.008874      0.002280      0.002744
      2.06217      6.19293      3.24852         0.004126     -0.019426      0.009644
      4.12007      4.12806      3.24412         0.005800     -0.020710      0.001118
     -0.00582      6.20299      5.41599        -0.009283      0.001698     -0.001528
      4.12840      2.05837      5.44485        -0.000807     -0.004728      0.005367
      6.19237     -0.01035      5.43698         0.002722     -0.006817     -0.002014
     -0.00203     -0.00610      1.12744         0.002513      0.006559     -0.006995
      2.04151     -0.00426      7.53941         0.003162      0.003438      0.004382
      8.25684      2.07006      7.63840        -0.000048      0.002407      0.005852
      2.05658      2.05757      1.09988         0.000215      0.006704      0.007962
     -0.01252     -0.04428      5.40840         0.002397     -0.001229      0.001431
      2.01232      8.24925      3.25467        -0.004169      0.006882      0.000720
      0.05040      2.07747      3.20912         0.004241     -0.003078     -0.001919
      2.07026      2.01858      5.42812         0.002013     -0.002803      0.003167
     -0.01455      4.14510      1.12660         0.005402      0.007170      0.000042
      2.06189      4.12830      7.65639         0.004147     -0.002533     -0.007990
     -0.00086      6.18741      7.54823        -0.005037     -0.005995      0.000595
      2.06841      6.21118      1.10861         0.000871      0.000955      0.002091
     -0.00914      4.17892      5.41632        -0.004609      0.000719      0.003664
      2.06130      4.13785      3.23468         0.004991     -0.004214      0.008678
      0.00345      6.18221      3.25746        -0.007498      0.001299     -0.002016
      2.07095      6.24386      5.40726        -0.002416      0.008337      0.002900
      4.13486      0.05814      1.01694        -0.002545      0.013949      0.008200
      6.21162     -0.00048      7.54715         0.000887     -0.007664      0.008163
      4.12383      2.00859      7.56012        -0.000354     -0.001901      0.006383
      6.21237      2.06439      1.04491         0.003039      0.006841     -0.012290
      4.14310      0.00662      5.44945        -0.001661      0.006320      0.005419
      6.23960     -0.00241      3.25508         0.001317      0.000140     -0.003778
      4.07784      2.06033      3.27427        -0.003093      0.005103      0.000631
      6.18486      2.07313      5.47073         0.000777      0.007335      0.002858
      4.15267      4.07313      1.12427         0.001495      0.004807      0.005413
      6.19058      4.12575      7.56537         0.002022     -0.008649      0.000287
      4.12110      6.24242      7.54125         0.002708     -0.001596     -0.010729
      6.19357      6.19662      1.12654         0.000649      0.003300     -0.001308
      4.14100      4.12674      5.37208        -0.000658     -0.008680     -0.003279
      6.19863      4.12841      3.26988        -0.007923     -0.000874     -0.004365
      4.12241      6.18015      3.30212         0.004499      0.006253      0.004384
      6.19030      6.19712      5.35037         0.002277     -0.002509      0.001646
      4.11639      4.12086      7.63659         0.003292     -0.005326     -0.004642
      2.06901      4.11998      1.09358         0.001305      0.005854      0.002793
      4.11865      8.23952      3.24060         0.003088      0.006101      0.001528
      0.00168      2.05918      5.42148        -0.001645     -0.004507     -0.002492
      6.19337      6.20048      7.57014         0.007409      0.000365      0.000867
      4.13615      6.20538      1.04428        -0.002311      0.007840      0.008820
      6.20092      2.06197      3.24814        -0.005638      0.008052     -0.010305
      2.07861      4.13918      5.42199        -0.004996     -0.005719     -0.000793
 -----------------------------------------------------------------------------------
    total drift:                                0.027597     -0.011219      0.137616


--------------------------------------------------------------------------------------------------------



  FREE ENERGIE OF THE ION-ELECTRON SYSTEM (eV)
  ---------------------------------------------------
  free  energy   TOTEN  =      -348.72866618 eV

  energy  without entropy=     -348.72866618  energy(sigma->0) =     -348.72866618
 
 d Force = 0.8631829E-03[ 0.474E-04, 0.168E-02]  d Energy = 0.8921129E-03-0.289E-04
 d Force = 0.4382625E+02[ 0.438E+02, 0.438E+02]  d Ewald  = 0.4382625E+02 0.285E-05


--------------------------------------------------------------------------------------------------------


    POTLOK:  cpu time      1.8098: real time      1.8100


--------------------------------------------------------------------------------------------------------


 stress matrix after NEB project (eV)
    -20.18445     -0.51200     -0.36589
     -0.51564    -16.13690     -0.58605
     -0.35678     -0.59261    -23.14289
  FORCES: max atom, RMS     0.022077    0.009796
  FORCE total and by dimension    0.078365    0.020710
  Stress total and by dimension   34.711507   23.142891
 Conjugate gradient step on ions:
 trial-energy change:   -0.000892  1 .order   -0.000863   -0.001679   -0.000047
  (g-gl).g = 0.818E-03      g.g   = 0.997E-03  gl.gl    = 0.323E-02
 g(Force)  = 0.997E-03   g(Stress)= 0.000E+00 ortho     = 0.138E-03
 gamma     =   0.25320
 trial     =   1.62711
 opt step  =   1.67443  (harmonic =   1.67443) maximal distance =0.00270654
 next E    =  -348.728638   (d E  =  -0.00086)


--------------------------------------------------------------------------------------------------------


  
 reached required accuracy - stopping structural energy minimisation
     LOOP+:  cpu time     98.1207: real time     98.1479
    4ORBIT:  cpu time      0.0000: real time      0.0000



 total charge

# of ion       s       p       d       tot
------------------------------------------
    1        0.342   0.391   8.207   8.940
    2        0.340   0.387   8.196   8.923
    3        0.341   0.390   8.200   8.931
    4        0.341   0.390   8.206   8.937
    5        0.347   0.400   8.208   8.955
    6        0.339   0.387   8.199   8.925
    7        0.351   0.440   8.257   9.047
    8        0.348   0.433   8.249   9.030
    9        0.347   0.433   8.249   9.029
   10        0.351   0.441   8.260   9.052
   11        0.348   0.434   8.250   9.032
   12        0.345   0.429   8.245   9.018
   13        0.338   0.385   8.199   8.922
   14        0.338   0.383   8.195   8.917
   15        0.349   0.405   8.224   8.978
   16        0.342   0.390   8.212   8.944
   17        0.341   0.389   8.197   8.927
   18        0.341   0.391   8.195   8.928
   19        0.352   0.443   8.261   9.056
   20        0.346   0.429   8.245   9.020
   21        0.347   0.432   8.249   9.027
   22        0.352   0.443   8.260   9.054
   23        0.346   0.430   8.248   9.024
   24        0.347   0.430   8.246   9.023
   25        1.576   3.453   0.000   5.028
   26        1.576   3.455   0.000   5.031
   27        1.576   3.446   0.000   5.022
   28        1.575   3.457   0.000   5.032
   29        1.578   3.489   0.000   5.067
   30        1.578   3.489   0.000   5.067
   31        1.578   3.492   0.000   5.070
   32        1.579   3.492   0.000   5.071
   33        1.574   3.456   0.000   5.031
   34        1.577   3.451   0.000   5.027
   35        1.575   3.454   0.000   5.029
   36        1.575   3.460   0.000   5.035
   37        1.579   3.490   0.000   5.068
   38        1.578   3.489   0.000   5.067
   39        1.578   3.485   0.000   5.063
   40        1.578   3.489   0.000   5.067
   41        1.576   3.451   0.000   5.027
   42        1.575   3.458   0.000   5.033
   43        1.575   3.457   0.000   5.033
   44        1.576   3.450   0.000   5.026
   45        1.578   3.488   0.000   5.066
   46        1.579   3.493   0.000   5.071
   47        1.579   3.490   0.000   5.069
   48        1.579   3.491   0.000   5.070
   49        1.574   3.461   0.000   5.036
   50        1.575   3.460   0.000   5.035
   51        1.574   3.462   0.000   5.036
   52        1.576   3.457   0.000   5.033
   53        1.578   3.488   0.000   5.066
   54        1.579   3.488   0.000   5.067
   55        1.578   3.490   0.000   5.068
   56        1.578   3.487   0.000   5.064
   57        0.294   0.342   6.114   6.750
   58        0.293   0.355   6.214   6.862
   59        0.303   0.388   6.164   6.855
   60        0.303   0.389   6.164   6.855
   61        0.295   0.357   6.212   6.864
   62        0.294   0.342   6.112   6.748
   63        0.304   0.391   6.164   6.859
   64        0.302   0.388   6.164   6.854
--------------------------------------------------
tot         61.123 123.975 246.767 431.865



 magnetization (x)

# of ion       s       p       d       tot
------------------------------------------
    1       -0.002   0.001  -1.705  -1.706
    2       -0.005  -0.003  -1.718  -1.726
    3       -0.005  -0.005  -1.718  -1.728
    4       -0.002  -0.002  -1.708  -1.712
    5       -0.006  -0.000  -1.711  -1.717
    6       -0.001  -0.000  -1.704  -1.705
    7        0.001   0.005  -1.707  -1.701
    8        0.002   0.005  -1.704  -1.697
    9        0.002   0.005  -1.713  -1.706
   10        0.001   0.006  -1.707  -1.701
   11        0.002   0.006  -1.708  -1.699
   12        0.002   0.006  -1.711  -1.703
   13        0.001   0.001   1.704   1.706
   14        0.003   0.001   1.714   1.718
   15        0.003   0.004   1.701   1.707
   16        0.000   0.001   1.701   1.702
   17        0.006   0.004   1.719   1.728
   18        0.007   0.002   1.721   1.729
   19       -0.001  -0.005   1.707   1.701
   20       -0.002  -0.006   1.707   1.698
   21       -0.001  -0.006   1.714   1.707
   22       -0.001  -0.005   1.707   1.700
   23       -0.002  -0.005   1.709   1.702
   24       -0.002  -0.005   1.706   1.699
   25        0.003   0.039   0.000   0.042
   26       -0.002  -0.038   0.000  -0.040
   27       -0.003  -0.023   0.000  -0.027
   28       -0.001  -0.012   0.000  -0.013
   29       -0.001  -0.011   0.000  -0.012
   30        0.000   0.029   0.000   0.029
   31        0.001   0.022   0.000   0.022
   32        0.001   0.008   0.000   0.009
   33        0.000  -0.020   0.000  -0.020
   34        0.002   0.012   0.000   0.014
   35        0.000   0.008   0.000   0.008
   36        0.006   0.056   0.000   0.062
   37        0.001   0.028   0.000   0.028
   38        0.002   0.008   0.000   0.010
   39       -0.000  -0.020   0.000  -0.020
   40       -0.000  -0.028   0.000  -0.028
   41       -0.002  -0.029   0.000  -0.031
   42        0.001   0.012   0.000   0.013
   43        0.002   0.046   0.000   0.048
   44        0.003   0.023   0.000   0.026
   45       -0.000   0.030   0.000   0.030
   46       -0.001  -0.006   0.000  -0.007
   47       -0.000  -0.026   0.000  -0.026
   48       -0.000  -0.033   0.000  -0.034
   49        0.005   0.054   0.000   0.060
   50       -0.006  -0.059   0.000  -0.065
   51       -0.006  -0.047   0.000  -0.053
   52       -0.002  -0.024   0.000  -0.027
   53       -0.000   0.009   0.000   0.009
   54        0.001   0.020   0.000   0.021
   55        0.000  -0.009   0.000  -0.008
   56       -0.001  -0.016   0.000  -0.017
   57       -0.023  -0.013  -3.636  -3.672
   58        0.007   0.007   0.071   0.084
   59       -0.014  -0.011  -3.643  -3.668
   60       -0.014  -0.011  -3.644  -3.669
   61       -0.005  -0.007  -0.074  -0.087
   62        0.023   0.013   3.636   3.672
   63        0.014   0.011   3.640   3.665
   64        0.014   0.012   3.647   3.673
--------------------------------------------------
tot          0.001   0.004  -0.006  -0.002
 

 total amount of memory used by VASP MPI-rank0   119523. kBytes
=======================================================================

   base      :      30000. kBytes
   nonlr-proj:       4127. kBytes
   fftplans  :       3778. kBytes
   grid      :       9886. kBytes
   one-center:        404. kBytes
   wavefun   :      71328. kBytes
 
  
  
 General timing and accounting informations for this job:
 ========================================================
  
                  Total CPU time used (sec):     5723.007
                            User time (sec):     5548.774
                          System time (sec):      174.233
                         Elapsed time (sec):     5725.070
  
                   Maximum memory used (kb):      254564.
                   Average memory used (kb):          N/A
  
                          Minor page faults:       682809
                          Major page faults:            2
                 Voluntary context switches:        64261
