 vasp.6.3.2 27Jun22 (build Aug 17 2022 19:46:44) complex                        
  
 executed on           tv1STDVTST date 2023.05.23  06:44:22
 running   20 mpi-ranks, with    1 threads/rank
 distrk:  each k-point on   20 cores,    1 groups
 distr:  one band on NCORE=   5 cores,    4 groups


--------------------------------------------------------------------------------------------------------


 INCAR:
    = \=\=\=\=\=\=\=\=\=\=\=\=\=\=\=\=\=\=\=\=\=\=\=\=\=\=\=\=\=\=\=\=\=\=\=\=\=\=\=\=\=\=\=\=\=\=\=\=\=\=\=\=\=\=\=\=\=\=\=\=\=\=\=\=\=\=\=\=\=\=\=\=
    = \=\=\=\=\=\=\=\=\=\=\=\=\=\=\=\=\=\=\=\=\=\=\=\=\=\=\=\=\=\=\=\=\=\=\=\=\=\=\=\=\=\=\=\=\=\=\=\=\=\=\=\=\=\=\=\=\=\=\=\=\=\=\=\=\=\=\=\=\=\=\=\=
   ISTART = 0
   ICHARG = 2
   IDIPOL = 3
   MAGMOM = 12*-2 12*2 32*0 8*4
    = \=\=\=\=\=\=\=\=\=\=\=\=\=\=\=\=\=\=\=\=\=\=\=\=\=\=\=\=\=\=\=\=\=\=\=\=\=\=\=\=\=\=\=\=\=\=\=\=\=\=\=\=\=\=\=\=\=\=\=\=\=\=\=\=\=\=\=\=\=\=\=\=
    = \=\=\=\=\=\=\=\=\=\=\=\=\=\=\=\=\=\=\=\=\=\=\=\=\=\=\=\=\=\=\=\=\=\=\=\=\=\=\=\=\=\=\=\=\=\=\=\=\=\=\=\=\=\=\=\=\=\=\=\=\=\=\=\=\=\=\=\=\=\=\=\=
   ISPIN = 2
   LDAU = .TRUE
   LDAUTYPE = 2
   LDAUL = 2 -1 2
   LDAUU = 5.3 0 4
   LDAUJ = 0 0 0
    = \=\=\=\=\=\=\=\=\=\=\=\=\=\=\=\=\=\=\=\=\=\=\=\=\=\=\=\=\=\=\=\=\=\=\=\=\=\=\=\=\=\=\=\=\=\=\=\=\=\=\=\=\=\=\=\=\=\=\=\=\=\=\=\=\=\=\=\=\=\=\=\=
    = \=\=\=\=\=\=\=\=\=\=\=\=\=\=\=\=\=\=\=\=\=\=\=\=\=\=\=\=\=\=\=\=\=\=\=\=\=\=\=\=\=\=\=\=\=\=\=\=\=\=\=\=\=\=\=\=\=\=\=\=\=\=\=\=\=\=\=\=\=\=\=\=
   ENCUT = 400
   PREC = N
   EDIFF = 1E-05
   GGA = PE
   ISMEAR = 0
   SIGMA = 0.05
   ALGO = F
   LREAL = Auto
   LMAXMIX = 4
   LASPH = .TRUE
    = \=\=\=\=\=\=\=\=\=\=\=\=\=\=\=\=\=\=\=\=\=\=\=\=\=\=\=\=\=\=\=\=\=\=\=\=\=\=\=\=\=\=\=\=\=\=\=\=\=\=\=\=\=\=\=\=\=\=\=\=\=\=\=\=\=\=\=\=\=\=\=\=
    = \=\=\=\=\=\=\=\=\=\=\=\=\=\=\=\=\=\=\=\=\=\=\=\=\=\=\=\=\=\=\=\=\=\=\=\=\=\=\=\=\=\=\=\=\=\=\=\=\=\=\=\=\=\=\=\=\=\=\=\=\=\=\=\=\=\=\=\=\=\=\=\=
   ISYM = 0
   NSW = 800
   IBRION = 2
   POTIM = 0.5
   ISIF = 2
   EDIFFG = -.03
    = \=\=\=\=\=\=\=\=\=\=\=\=\=\=\=\=\=\=\=\=\=\=\=\=\=\=\=\=\=\=\=\=\=\=\=\=\=\=\=\=\=\=\=\=\=\=\=\=\=\=\=\=\=\=\=\=\=\=\=\=\=\=\=\=\=\=\=\=\=\=\=\=
    = \=\=\=\=\=\=\=\=\=\=\=\=\=\=\=\=\=\=\=\=\=\=\=\=\=\=\=\=\=\=\=\=\=\=\=\=\=\=\=\=\=\=\=\=\=\=\=\=\=\=\=\=\=\=\=\=\=\=\=\=\=\=\=\=\=\=\=\=\=\=\=\=
   NPAR = 4
   LWAVE = .FALSE.
   LCHARG = .FALSE.
   LORBIT = 11

 POTCAR:    PAW_PBE Ni 02Aug2007                  
 POTCAR:    PAW_PBE O 08Apr2002                   
 POTCAR:    PAW_PBE Fe 06Sep2000                  
 POTCAR:    PAW_PBE Ni 02Aug2007                  
   SHA256 =  0534bc51ca8003dfef23f56753fef9fdd3e22eac8d719fccacb59f3e6b7a69c7 Ni/POTCAR             
   COPYR  = (c) Copyright 02Aug2007 Georg Kresse                                                    
   COPYR  = This file is part of the software VASP. Any use, copying, and all other rights are regul
   COPYR  = If you do not have a valid VASP license, you may not use, copy or distribute this file. 
   VRHFIN =Ni:                                                                                      
   LEXCH  = PE                                                                                      
   EATOM  =  1077.6739 eV,   79.2068 Ry                                                             
                                                                                                    
   TITEL  = PAW_PBE Ni 02Aug2007                                                                    
   LULTRA =        F    use ultrasoft PP ?                                                          
   IUNSCR =        1    unscreen: 0-lin 1-nonlin 2-no                                               
   RPACOR =    2.000    partial core radius                                                         
   POMASS =   58.690; ZVAL   =   10.000    mass and valenz                                          
   RCORE  =    2.300    outmost cutoff radius                                                       
   RWIGS  =    2.430; RWIGS  =    1.286    wigner-seitz radius (au A)                               
   ENMAX  =  269.532; ENMIN  =  202.149 eV                                                          
   RCLOC  =    1.201    cutoff for local pot                                                        
   LCOR   =        T    correct aug charges                                                         
   LPAW   =        T    paw PP                                                                      
   EAUG   =  544.565                                                                                
   DEXC   =    0.000                                                                                
   RMAX   =    2.357    core radius for proj-oper                                                   
   RAUG   =    1.300    factor for augmentation sphere                                              
   RDEP   =    2.390    radius for radial grids                                                     
   RDEPT  =    1.838    core radius for aug-charge                                                  
                                                                                                    
   Atomic configuration                                                                             
    9 entries                                                                                       
     n  l   j            E        occ.                                                              
     1  0  0.50     -8206.4253   2.0000                                                             
     2  0  0.50      -976.1748   2.0000                                                             
     2  1  1.50      -839.0571   6.0000                                                             
     3  0  0.50      -105.9991   2.0000                                                             
     3  1  1.50       -66.4603   6.0000                                                             
     3  2  2.50        -4.6458   9.0000                                                             
     4  0  0.50        -4.4926   1.0000                                                             
     4  1  1.50        -4.0817   0.0000                                                             
     4  3  2.50        -1.3606   0.0000                                                             
   Description                                                                                      
     l       E           TYP  RCUT    TYP  RCUT                                                     
     2     -4.6457903     23  2.300                                                                 
     2     -6.0063729     23  2.300                                                                 
     0     -4.4925590     23  2.300                                                                 
     0      5.0102601     23  2.300                                                                 
     1     -2.7211652     23  2.300                                                                 
     1     16.5183231     23  2.300                                                                 
  local pseudopotential read in
  partial core-charges read in
  partial kinetic energy density read in
  atomic valenz-charges read in
  non local Contribution for L=           2  read in
    real space projection operators read in
  non local Contribution for L=           2  read in
    real space projection operators read in
  non local Contribution for L=           0  read in
    real space projection operators read in
  non local Contribution for L=           0  read in
    real space projection operators read in
  non local Contribution for L=           1  read in
    real space projection operators read in
  non local Contribution for L=           1  read in
    real space projection operators read in
    PAW grid and wavefunctions read in
 
   number of l-projection  operators is LMAX  =           6
   number of lm-projection operators is LMMAX =          18
 
 POTCAR:    PAW_PBE O 08Apr2002                   
   SHA256 =  818f92134a0a090dccd8ba1447fa70422a3b330e708bb4f08108d8ae51209ddf O/POTCAR              
   COPYR  = (c) Copyright 08Apr2002 Georg Kresse                                                    
   COPYR  = This file is part of the software VASP. Any use, copying, and all other rights are regul
   COPYR  = If you do not have a valid VASP license, you may not use, copy or distribute this file. 
   VRHFIN =O: s2p4                                                                                  
   LEXCH  = PE                                                                                      
   EATOM  =   432.3788 eV,   31.7789 Ry                                                             
                                                                                                    
   TITEL  = PAW_PBE O 08Apr2002                                                                     
   LULTRA =        F    use ultrasoft PP ?                                                          
   IUNSCR =        1    unscreen: 0-lin 1-nonlin 2-no                                               
   RPACOR =    1.200    partial core radius                                                         
   POMASS =   16.000; ZVAL   =    6.000    mass and valenz                                          
   RCORE  =    1.520    outmost cutoff radius                                                       
   RWIGS  =    1.550; RWIGS  =    0.820    wigner-seitz radius (au A)                               
   ENMAX  =  400.000; ENMIN  =  300.000 eV                                                          
   ICORE  =        2    local potential                                                             
   LCOR   =        T    correct aug charges                                                         
   LPAW   =        T    paw PP                                                                      
   EAUG   =  605.392                                                                                
   DEXC   =    0.000                                                                                
   RMAX   =    1.553    core radius for proj-oper                                                   
   RAUG   =    1.300    factor for augmentation sphere                                              
   RDEP   =    1.550    radius for radial grids                                                     
   RDEPT  =    1.329    core radius for aug-charge                                                  
                                                                                                    
   Atomic configuration                                                                             
    4 entries                                                                                       
     n  l   j            E        occ.                                                              
     1  0  0.50      -514.6923   2.0000                                                             
     2  0  0.50       -23.9615   2.0000                                                             
     2  1  0.50        -9.0305   4.0000                                                             
     3  2  1.50        -9.5241   0.0000                                                             
   Description                                                                                      
     l       E           TYP  RCUT    TYP  RCUT                                                     
     0    -23.9615318     23  1.200                                                                 
     0     -9.5240782     23  1.200                                                                 
     1     -9.0304911     23  1.520                                                                 
     1      8.1634956     23  1.520                                                                 
     2     -9.5240782      7  1.500                                                                 
  local pseudopotential read in
  partial core-charges read in
  partial kinetic energy density read in
  kinetic energy density of atom read in
  atomic valenz-charges read in
  non local Contribution for L=           0  read in
    real space projection operators read in
  non local Contribution for L=           0  read in
    real space projection operators read in
  non local Contribution for L=           1  read in
    real space projection operators read in
  non local Contribution for L=           1  read in
    real space projection operators read in
    PAW grid and wavefunctions read in
 
   number of l-projection  operators is LMAX  =           4
   number of lm-projection operators is LMMAX =           8
 
 POTCAR:    PAW_PBE Fe 06Sep2000                  
   SHA256 =  cd5a22d9368cc8b5cc476bea79732366149640da08ac9009b0e1b7fc627eea28 Fe/POTCAR             
   COPYR  = (c) Copyright 06Sep2000 Georg Kresse                                                    
   COPYR  = This file is part of the software VASP. Any use, copying, and all other rights are regul
   COPYR  = If you do not have a valid VASP license, you may not use, copy or distribute this file. 
   VRHFIN =Fe:  d7 s1                                                                               
   LEXCH  = PE                                                                                      
   EATOM  =   594.3153 eV,   43.6809 Ry                                                             
                                                                                                    
   TITEL  = PAW_PBE Fe 06Sep2000                                                                    
   LULTRA =        F    use ultrasoft PP ?                                                          
   IUNSCR =        1    unscreen: 0-lin 1-nonlin 2-no                                               
   RPACOR =    2.000    partial core radius                                                         
   POMASS =   55.847; ZVAL   =    8.000    mass and valenz                                          
   RCORE  =    2.300    outmost cutoff radius                                                       
   RWIGS  =    2.460; RWIGS  =    1.302    wigner-seitz radius (au A)                               
   ENMAX  =  267.882; ENMIN  =  200.911 eV                                                          
   RCLOC  =    1.701    cutoff for local pot                                                        
   LCOR   =        T    correct aug charges                                                         
   LPAW   =        T    paw PP                                                                      
   EAUG   =  511.368                                                                                
   DEXC   =    0.000                                                                                
   RMAX   =    2.356    core radius for proj-oper                                                   
   RAUG   =    1.300    factor for augmentation sphere                                              
   RDEP   =    2.442    radius for radial grids                                                     
   RDEPT  =    1.890    core radius for aug-charge                                                  
                                                                                                    
   Atomic configuration                                                                             
    9 entries                                                                                       
     n  l   j            E        occ.                                                              
     1  0  0.50     -6993.8440   2.0000                                                             
     2  0  0.50      -814.6047   2.0000                                                             
     2  1  1.50      -693.3689   6.0000                                                             
     3  0  0.50       -89.4732   2.0000                                                             
     3  1  1.50       -55.6373   6.0000                                                             
     3  2  2.50        -3.8151   7.0000                                                             
     4  0  0.50        -4.2551   1.0000                                                             
     4  1  1.50        -3.4015   0.0000                                                             
     4  3  2.50        -1.3606   0.0000                                                             
   Description                                                                                      
     l       E           TYP  RCUT    TYP  RCUT                                                     
     2     -3.8151135     23  2.300                                                                 
     2     -5.1756961     23  2.300                                                                 
     0     -4.2550963     23  2.300                                                                 
     0      7.2035603     23  2.300                                                                 
     1     -2.7211652     23  2.300                                                                 
     1     18.4316424     23  2.300                                                                 
  local pseudopotential read in
  partial core-charges read in
  partial kinetic energy density read in
  atomic valenz-charges read in
  non local Contribution for L=           2  read in
    real space projection operators read in
  non local Contribution for L=           2  read in
    real space projection operators read in
  non local Contribution for L=           0  read in
    real space projection operators read in
  non local Contribution for L=           0  read in
    real space projection operators read in
  non local Contribution for L=           1  read in
    real space projection operators read in
  non local Contribution for L=           1  read in
    real space projection operators read in
    PAW grid and wavefunctions read in
 
   number of l-projection  operators is LMAX  =           6
   number of lm-projection operators is LMMAX =          18
 
 Optimization of the real space projectors (new method)

 maximal supplied QI-value         = 16.25
 optimisation between [QCUT,QGAM] = [ 10.24, 20.48] = [ 29.35,117.42] Ry 
 Optimized for a Real-space Cutoff    1.34 Angstroem

   l    n(q)    QCUT    max X(q) W(low)/X(q) W(high)/X(q)  e(spline) 
   2      7    10.239    60.317    0.39E-03    0.10E-02    0.10E-06
   2      7    10.239    55.921    0.39E-03    0.10E-02    0.11E-06
   0      8    10.239    51.690    0.45E-03    0.17E-03    0.10E-06
   0      8    10.239    30.015    0.41E-03    0.16E-03    0.90E-07
   1      8    10.239    18.849    0.23E-03    0.62E-03    0.14E-06
   1      8    10.239    14.624    0.18E-03    0.51E-03    0.12E-06
 Optimization of the real space projectors (new method)

 maximal supplied QI-value         = 24.76
 optimisation between [QCUT,QGAM] = [ 10.15, 20.30] = [ 28.85,115.39] Ry 
 Optimized for a Real-space Cutoff    1.38 Angstroem

   l    n(q)    QCUT    max X(q) W(low)/X(q) W(high)/X(q)  e(spline) 
   0      8    10.150    20.381    0.22E-03    0.32E-03    0.29E-06
   0      8    10.150    15.268    0.23E-03    0.35E-03    0.30E-06
   1      8    10.150     5.964    0.46E-03    0.53E-03    0.21E-06
   1      8    10.150     5.382    0.38E-03    0.45E-03    0.19E-06
 Optimization of the real space projectors (new method)

 maximal supplied QI-value         = 16.25
 optimisation between [QCUT,QGAM] = [ 10.24, 20.48] = [ 29.35,117.42] Ry 
 Optimized for a Real-space Cutoff    1.51 Angstroem

   l    n(q)    QCUT    max X(q) W(low)/X(q) W(high)/X(q)  e(spline) 
   2      8    10.239    80.901    0.43E-03    0.67E-03    0.20E-06
   2      8    10.239    75.754    0.44E-03    0.68E-03    0.20E-06
   0      9    10.239    58.752    0.81E-04    0.41E-04    0.71E-07
   0      9    10.239    30.679    0.75E-04    0.39E-04    0.65E-07
   1      9    10.239    17.977    0.50E-04    0.16E-03    0.11E-06
   1      9    10.239    13.559    0.39E-04    0.13E-03    0.98E-07
  PAW_PBE Ni 02Aug2007                  :
 energy of atom  1       EATOM=-1077.6739
 kinetic energy error for atom=    0.0101 (will be added to EATOM!!)
  PAW_PBE O 08Apr2002                   :
 energy of atom  2       EATOM= -432.3788
 kinetic energy error for atom=    0.1156 (will be added to EATOM!!)
  PAW_PBE Fe 06Sep2000                  :
 energy of atom  3       EATOM= -594.3153
 kinetic energy error for atom=    0.0088 (will be added to EATOM!!)
 
 
 POSCAR: Ni  O
  positions in cartesian coordinates
  No initial velocities read in
 exchange correlation table for  LEXCH =        8
   RHO(1)=    0.500       N(1)  =     2000
   RHO(2)=  100.500       N(2)  =     4000

 VTST: version 4.2, (08/11/21)

 CHAIN: initializing optimizer
 
 OPT: Using VASP Conjugate-Gradient optimizer
 CHAIN: Read ICHAIN            0
 
 POSCAR: Ni  O
  positions in cartesian coordinates
  No initial velocities read in
 


--------------------------------------------------------------------------------------------------------


 ion  position               nearest neighbor table
   1  1.000  1.000  0.321-  42 2.06  35 2.06  27 2.07  26 2.07  29 2.08  24 2.92  22 2.92  61 2.92
                             2 2.92  13 2.92   3 2.92  60 2.92  10 2.92
   2  0.250  0.750  0.321-  35 2.06  34 2.06  26 2.07  51 2.07  40 2.08  22 2.92  64 2.92   1 2.92
                            15 2.92  57 2.92  14 2.92  10 2.92  11 2.92
   3  0.750  0.250  0.321-  43 2.06  42 2.06  50 2.07  27 2.07  48 2.08  23 2.92  24 2.92  57 2.92
                            15 2.92  14 2.92   1 2.92  12 2.92  60 2.92
   4  0.000  0.750  0.052-  36 2.06  25 2.06  33 2.07  52 2.07  39 2.08  20 2.92  19 2.92  18 2.92
                             6 2.92  58 2.92  17 2.92   8 2.92   9 2.92
   5  0.500  0.250  0.052-  44 2.06  49 2.06  41 2.07  28 2.07  47 2.08  63 2.92  21 2.92   6 2.92
                            17 2.92  18 2.92  58 2.92  59 2.92   7 2.92
   6  0.750  0.000  0.052-  25 2.06  44 2.06  52 2.07  41 2.07  46 2.08  19 2.92  63 2.92  16 2.92
                             4 2.92   5 2.92  62 2.92   9 2.92  59 2.92
   7  0.250  0.250  0.141-  47 2.06  38 2.06  30 2.07  31 2.07  28 2.10  32 2.11  16 2.92  17 2.92
                            59 2.92  21 2.92  19 2.92   8 2.92  58 2.92   5 2.92  60 2.96  10 2.96
   8  1.000  0.500  0.141-  39 2.06  38 2.06  31 2.07  54 2.07  33 2.10  37 2.11  18 2.92  16 2.92
                             9 2.92  63 2.92  20 2.92   7 2.92   4 2.92  58 2.92  12 2.96  60 2.96
   9  0.750  0.750  0.141-  39 2.06  46 2.06  54 2.07  55 2.07  52 2.10  56 2.11  62 2.92  18 2.92
                             8 2.92  19 2.92  21 2.92  59 2.92   6 2.92   4 2.92  11 2.96  12 2.96
  10  0.250  0.000  0.232-  29 2.06  40 2.06  32 2.07  45 2.07  26 2.10  30 2.11  15 2.92  13 2.92
                            23 2.92  60 2.92  11 2.92  22 2.92   2 2.92   1 2.92  59 2.96   7 2.96
  11  0.500  0.750  0.232-  53 2.06  40 2.06  45 2.07  56 2.07  51 2.10  55 2.11  61 2.92  15 2.92
                            12 2.92  64 2.92  10 2.92  24 2.92  57 2.92   2 2.92   9 2.96  59 2.96
  12  0.750  0.500  0.232-  48 2.06  53 2.06  56 2.07  37 2.07  50 2.10  54 2.11  14 2.92  61 2.92
                            60 2.92  22 2.92  11 2.92  23 2.92   3 2.92  57 2.92   8 2.96   9 2.96
  13  0.250  0.250  0.321-  27 2.06  26 2.06  34 2.07  43 2.07  32 2.08  60 2.92  10 2.92  15 2.92
                            14 2.92  57 2.92   1 2.92  64 2.92  23 2.92
  14  1.000  0.500  0.321-  50 2.06  27 2.06  35 2.07  34 2.07  37 2.08  12 2.92  60 2.92   3 2.92
                            13 2.92  61 2.92   2 2.92  22 2.92  64 2.92
  15  0.500  1.000  0.321-  26 2.06  51 2.06  43 2.07  42 2.07  45 2.08  10 2.92  11 2.92  13 2.92
                             2 2.92   3 2.92  61 2.92  23 2.92  24 2.92
  16  0.000  0.250  0.052-  28 2.06  33 2.06  25 2.07  44 2.07  31 2.08   7 2.92   8 2.92   6 2.92
                            18 2.92  58 2.92  17 2.92  19 2.92  63 2.92
  17  0.250  0.000  0.052-  41 2.06  28 2.06  36 2.07  25 2.07  30 2.08  59 2.92   7 2.92   5 2.92
                            62 2.92  16 2.92   4 2.92  20 2.92  19 2.92
  18  0.750  0.500  0.052-  33 2.06  52 2.06  44 2.07  49 2.07  54 2.08   8 2.92   9 2.92   4 2.92
                            16 2.92  62 2.92   5 2.92  63 2.92  21 2.92
  19  1.000  1.000  0.141-  30 2.06  31 2.06  39 2.07  46 2.07  25 2.10  29 2.11   6 2.92   4 2.92
                             9 2.92  63 2.92  20 2.92   7 2.92  16 2.92  17 2.92  24 2.96  22 2.96
  20  0.250  0.750  0.141-  55 2.06  30 2.06  38 2.07  39 2.07  36 2.10  40 2.11   4 2.92  58 2.92
                            21 2.92   8 2.92  59 2.92  19 2.92  17 2.92  62 2.92  22 2.96  64 2.96
  21  0.500  0.500  0.141-  54 2.06  55 2.06  38 2.07  47 2.07  49 2.10  53 2.11  58 2.92   5 2.92
                            20 2.92   9 2.92   7 2.92  63 2.92  62 2.92  18 2.92  64 2.96  23 2.96
  22  0.000  0.750  0.232-  56 2.06  37 2.06  29 2.07  40 2.07  35 2.10  39 2.11   2 2.92   1 2.92
                            12 2.92  64 2.92  24 2.92  10 2.92  14 2.92  61 2.92  20 2.96  19 2.96
  23  0.500  0.250  0.232-  32 2.06  45 2.06  48 2.07  53 2.07  43 2.10  47 2.11   3 2.92  57 2.92
                            24 2.92  10 2.92  12 2.92  64 2.92  15 2.92  13 2.92  63 2.96  21 2.96
  24  0.750  0.000  0.232-  45 2.06  56 2.06  48 2.07  29 2.07  42 2.10  46 2.11   1 2.92   3 2.92
                            23 2.92  60 2.92  22 2.92  11 2.92  61 2.92  15 2.92  19 2.96  63 2.96
  25  0.000  0.000  0.050-   6 2.06   4 2.06  16 2.07  17 2.07  19 2.10
  26  0.250  1.000  0.323-  15 2.06  13 2.06   2 2.07   1 2.07  10 2.10
  27  1.000  0.250  0.323-  13 2.06  14 2.06   1 2.07   3 2.07  60 2.10
  28  0.250  0.250  0.050-  16 2.06  17 2.06  58 2.07   5 2.07   7 2.10
  29  0.000  0.000  0.232-  10 2.06  60 2.06  22 2.07  24 2.07   1 2.08  19 2.11
  30  0.250  1.000  0.141-  19 2.06  20 2.06   7 2.07  59 2.07  17 2.08  10 2.11
  31  1.000  0.250  0.141-  63 2.06  19 2.06   8 2.07   7 2.07  16 2.08  60 2.11
  32  0.250  0.250  0.232-  23 2.06  64 2.06  10 2.07  60 2.07  13 2.08   7 2.11
  33  0.000  0.500  0.050-  18 2.06  16 2.06   4 2.07  58 2.07   8 2.10
  34  0.250  0.500  0.323-  57 2.06   2 2.06  13 2.07  14 2.07  64 2.10
  35  1.000  0.750  0.323-   2 2.06   1 2.06  14 2.07  61 2.07  22 2.10
  36  0.250  0.750  0.050-   4 2.06  58 2.06  17 2.07  62 2.07  20 2.10
  37  0.000  0.500  0.232-  64 2.06  22 2.06  60 2.07  12 2.07  14 2.08   8 2.11
  38  0.250  0.500  0.141-   7 2.06   8 2.06  20 2.07  21 2.07  58 2.08  64 2.11
  39  1.000  0.750  0.141-   9 2.06   8 2.06  19 2.07  20 2.07   4 2.08  22 2.11
  40  0.250  0.750  0.232-  11 2.06  10 2.06  64 2.07  22 2.07   2 2.08  20 2.11
  41  0.500  0.000  0.050-  17 2.06  62 2.06   5 2.07   6 2.07  59 2.10
  42  0.750  1.000  0.323-   1 2.06   3 2.06  61 2.07  15 2.07  24 2.10
  43  0.500  0.250  0.323-   3 2.06  57 2.06  15 2.07  13 2.07  23 2.10
  44  0.750  0.250  0.050-   5 2.06   6 2.06  18 2.07  16 2.07  63 2.10
  45  0.500  0.000  0.232-  24 2.06  23 2.06  11 2.07  10 2.07  15 2.08  59 2.11
  46  0.750  1.000  0.141-  59 2.06   9 2.06  63 2.07  19 2.07   6 2.08  24 2.11
  47  0.500  0.250  0.141-   7 2.06  59 2.06  21 2.07  63 2.07   5 2.08  23 2.11
  48  0.750  0.250  0.232-  60 2.06  12 2.06  24 2.07  23 2.07   3 2.08  63 2.11
  49  0.500  0.500  0.050-  58 2.06   5 2.06  62 2.07  18 2.07  21 2.10
  50  0.750  0.500  0.323-  14 2.06  61 2.06   3 2.07  57 2.07  12 2.10
  51  0.500  0.750  0.323-  61 2.06  15 2.06  57 2.07   2 2.07  11 2.10
  52  0.750  0.750  0.050-  62 2.06  18 2.06   6 2.07   4 2.07   9 2.10
  53  0.500  0.500  0.232-  11 2.06  12 2.06  23 2.07  64 2.07  57 2.08  21 2.11
  54  0.750  0.500  0.141-  21 2.06  63 2.06   9 2.07   8 2.07  18 2.08  12 2.11
  55  0.500  0.750  0.141-  20 2.06  21 2.06  59 2.07   9 2.07  62 2.08  11 2.11
  56  0.750  0.750  0.232-  22 2.06  24 2.06  11 2.07  12 2.07  61 2.08   9 2.11
  57  0.500  0.500  0.321-  34 2.06  43 2.06  51 2.07  50 2.07  53 2.08  64 2.92  23 2.92   3 2.92
                            13 2.92   2 2.92  61 2.92  11 2.92  12 2.92
  58  0.250  0.500  0.052-  49 2.06  36 2.06  28 2.07  33 2.07  38 2.08  21 2.92  20 2.92  16 2.92
                             4 2.92  62 2.92   5 2.92   7 2.92   8 2.92
  59  0.500  1.000  0.141-  46 2.06  47 2.06  55 2.07  30 2.07  41 2.10  45 2.11  17 2.92  62 2.92
                             7 2.92  20 2.92   9 2.92  63 2.92   5 2.92   6 2.92  10 2.96  11 2.96
  60  0.000  0.250  0.232-  48 2.06  29 2.06  37 2.07  32 2.07  27 2.10  31 2.11  13 2.92  14 2.92
                            64 2.92  12 2.92  24 2.92  10 2.92   1 2.92   3 2.92   7 2.96   8 2.96
  61  0.750  0.750  0.321-  51 2.06  50 2.06  42 2.07  35 2.07  56 2.08  11 2.92  12 2.92   1 2.92
                            15 2.92  57 2.92  14 2.92  24 2.92  22 2.92
  62  0.500  0.750  0.052-  52 2.06  41 2.06  49 2.07  36 2.07  55 2.08   9 2.92  59 2.92  18 2.92
                            17 2.92   6 2.92  58 2.92  21 2.92  20 2.92
  63  0.750  0.250  0.141-  31 2.06  54 2.06  46 2.07  47 2.07  44 2.10  48 2.11   5 2.92   6 2.92
                             8 2.92  19 2.92  21 2.92  59 2.92  18 2.92  16 2.92  23 2.96  24 2.96
  64  0.250  0.500  0.232-  37 2.06  32 2.06  40 2.07  53 2.07  34 2.10  38 2.11  57 2.92   2 2.92
                            60 2.92  11 2.92  23 2.92  22 2.92  13 2.92  14 2.92  21 2.96  20 2.96
 

IMPORTANT INFORMATION: All symmetrisations will be switched off!
NOSYMM: (Re-)initialisation of all symmetry stuff for point group C_1.


----------------------------------------------------------------------------------------

                                     Primitive cell                                     

  volume of cell :    1586.3291

  direct lattice vectors                    reciprocal lattice vectors
     8.258574486  0.000000000  0.000000000     0.121086272  0.000000000  0.000000000
     0.000000000  8.258574486  0.000000000     0.000000000  0.121086272  0.000000000
     0.000000000  0.000000000 23.258575439     0.000000000  0.000000000  0.042994895

  length of vectors
     8.258574486  8.258574486 23.258575439     0.121086272  0.121086272  0.042994895

  position of ions in fractional coordinates (direct lattice)
     0.999553800  0.999554098  0.320940107
     0.249553815  0.749554157  0.320940107
     0.749553800  0.249554142  0.320940107
     0.000261758  0.750261426  0.051898405
     0.500261784  0.250261426  0.051898405
     0.750261784  0.000261438  0.051898398
     0.249848098  0.249848127  0.140649199
     0.999848068  0.499848157  0.140649199
     0.749848127  0.749848127  0.140649199
     0.250226796  0.000226752  0.232115537
     0.500226796  0.750226736  0.232115537
     0.750226796  0.500226736  0.232115537
     0.249553800  0.249554127  0.320940107
     0.999553800  0.499554127  0.320940107
     0.499553800  0.999554157  0.320940107
     0.000261765  0.250261426  0.051898394
     0.250261784  0.000261433  0.051898401
     0.750261784  0.500261426  0.051898394
     0.999848068  0.999848127  0.140649185
     0.249848083  0.749848127  0.140649199
     0.499848098  0.499848157  0.140649185
     0.000226795  0.750226736  0.232115537
     0.500226796  0.250226736  0.232115537
     0.750226796  0.000226753  0.232115537
     0.000255936  0.000255791  0.050353639
     0.249728814  0.999728978  0.322508395
     0.999728799  0.249728993  0.322508395
     0.250255972  0.250255793  0.050353643
     0.000321450  0.000321369  0.231580749
     0.249803230  0.999803305  0.141275451
     0.999803185  0.249803290  0.141275451
     0.250321448  0.250321358  0.231580764
     0.000255916  0.500255823  0.050353631
     0.249728799  0.499729007  0.322508365
     0.999728799  0.749728978  0.322508395
     0.250255942  0.750255764  0.050353643
     0.000321468  0.500321388  0.231580764
     0.249803230  0.499803275  0.141275451
     0.999803185  0.749803305  0.141275451
     0.250321448  0.750321388  0.231580749
     0.500256002  0.000255794  0.050353616
     0.749728799  0.999728978  0.322508395
     0.499728799  0.249729022  0.322508365
     0.750255942  0.250255793  0.050353631
     0.500321448  0.000321369  0.231580764
     0.749803185  0.999803305  0.141275451
     0.499803215  0.249803290  0.141275451
     0.750321448  0.250321388  0.231580764
     0.500255942  0.500255764  0.050353635
     0.749728799  0.499729007  0.322508395
     0.499728829  0.749729037  0.322508395
     0.750255942  0.750255764  0.050353624
     0.500321448  0.500321388  0.231580749
     0.749803185  0.499803305  0.141275451
     0.499803215  0.749803305  0.141275465
     0.750321448  0.750321388  0.231580764
     0.499553800  0.499554127  0.320940107
     0.250261754  0.500261426  0.051898416
     0.499848098  0.999848127  0.140649185
     0.000226796  0.250226766  0.232115537
     0.749553800  0.749554157  0.320940107
     0.500261784  0.750261426  0.051898409
     0.749848127  0.249848157  0.140649185
     0.250226796  0.500226736  0.232115537

  ion indices of the primitive-cell ions
   primitive index   ion index
                 1           1
                 2           2
                 3           3
                 4           4
                 5           5
                 6           6
                 7           7
                 8           8
                 9           9
                10          10
                11          11
                12          12
                13          13
                14          14
                15          15
                16          16
                17          17
                18          18
                19          19
                20          20
                21          21
                22          22
                23          23
                24          24
                25          25
                26          26
                27          27
                28          28
                29          29
                30          30
                31          31
                32          32
                33          33
                34          34
                35          35
                36          36
                37          37
                38          38
                39          39
                40          40
                41          41
                42          42
                43          43
                44          44
                45          45
                46          46
                47          47
                48          48
                49          49
                50          50
                51          51
                52          52
                53          53
                54          54
                55          55
                56          56
                57          57
                58          58
                59          59
                60          60
                61          61
                62          62
                63          63
                64          64

----------------------------------------------------------------------------------------

 
 
 KPOINTS: Auto-mesh                               

Automatic generation of k-mesh.
 Grid dimensions read from file:
 generate k-points for:    3    3    1

 Generating k-lattice:

  Cartesian coordinates                     Fractional coordinates (reciprocal lattice)
     0.040362091  0.000000000  0.000000000     0.333333333  0.000000000  0.000000000
     0.000000000  0.040362091  0.000000000     0.000000000  0.333333333  0.000000000
     0.000000000  0.000000000  0.042994895     0.000000000  0.000000000  1.000000000

  Length of vectors
     0.040362091  0.040362091  0.042994895

  Shift w.r.t. Gamma in fractional coordinates (k-lattice)
     0.000000000  0.000000000  0.000000000

 
 Subroutine IBZKPT returns following result:
 ===========================================
 
 Found      5 irreducible k-points:
 
 Following reciprocal coordinates:
            Coordinates               Weight
  0.000000  0.000000  0.000000      1.000000
  0.333333  0.000000  0.000000      2.000000
  0.000000  0.333333  0.000000      2.000000
  0.333333  0.333333  0.000000      2.000000
 -0.333333  0.333333  0.000000      2.000000
 
 Following cartesian coordinates:
            Coordinates               Weight
  0.000000  0.000000  0.000000      1.000000
  0.040362  0.000000  0.000000      2.000000
  0.000000  0.040362  0.000000      2.000000
  0.040362  0.040362  0.000000      2.000000
 -0.040362  0.040362  0.000000      2.000000
 


--------------------------------------------------------------------------------------------------------




 Dimension of arrays:
   k-points           NKPTS =      5   k-points in BZ     NKDIM =      5   number of bands    NBANDS=    316
   number of dos      NEDOS =    301   number of ions     NIONS =     64
   non local maximal  LDIM  =      6   non local SUM 2l+1 LMDIM =     18
   total plane-waves  NPLWV = 192000
   max r-space proj   IRMAX =   1790   max aug-charges    IRDMAX=   4510
   dimension x,y,z NGX =    40 NGY =   40 NGZ =  120
   dimension x,y,z NGXF=    80 NGYF=   80 NGZF=  240
   support grid    NGXF=    80 NGYF=   80 NGZF=  240
   ions per type =              24  32   8
   NGX,Y,Z   is equivalent  to a cutoff of   8.05,  8.05,  8.58 a.u.
   NGXF,Y,Z  is equivalent  to a cutoff of  16.10, 16.10, 17.15 a.u.

 SYSTEM =  unknown system                          
 POSCAR =  Ni  O                                   

 Startparameter for this run:
   NWRITE =      2    write-flag & timer
   PREC   = n         normal or accurate (medium, high low for compatibility)
   ISTART =      0    job   : 0-new  1-cont  2-samecut
   ICHARG =      2    charge: 1-file 2-atom 10-const
   ISPIN  =      2    spin polarized calculation?
   LNONCOLLINEAR =      F non collinear calculations
   LSORBIT =      F    spin-orbit coupling
   INIWAV =      1    electr: 0-lowe 1-rand  2-diag
   LASPH  =      T    aspherical Exc in radial PAW
 Electronic Relaxation 1
   ENCUT  =  400.0 eV  29.40 Ry    5.42 a.u.  13.47 13.47 37.93*2*pi/ulx,y,z
   ENINI  =  400.0     initial cutoff
   ENAUG  =  605.4 eV  augmentation charge cutoff
   NELM   =     60;   NELMIN=  2; NELMDL= -5     # of ELM steps 
   EDIFF  = 0.1E-04   stopping-criterion for ELM
   LREAL  =      T    real-space projection
   NLSPLINE    = F    spline interpolate recip. space projectors
   LCOMPAT=      F    compatible to vasp.4.4
   GGA_COMPAT  = T    GGA compatible to vasp.4.4-vasp.4.6
   LMAXPAW     = -100 max onsite density
   LMAXMIX     =    4 max onsite mixed and CHGCAR
   VOSKOWN=      0    Vosko Wilk Nusair interpolation
   ROPT   =   -0.00050  -0.00050  -0.00050
 Ionic relaxation
   EDIFFG = -.3E-01   stopping-criterion for IOM
   NSW    =    800    number of steps for IOM
   NBLOCK =      1;   KBLOCK =    800    inner block; outer block 
   IBRION =      2    ionic relax: 0-MD 1-quasi-New 2-CG
   NFREE  =      1    steps in history (QN), initial steepest desc. (CG)
   ISIF   =      2    stress and relaxation
   IWAVPR =     11    prediction:  0-non 1-charg 2-wave 3-comb
   ISYM   =      0    0-nonsym 1-usesym 2-fastsym
   LCORR  =      T    Harris-Foulkes like correction to forces

   POTIM  = 0.5000    time-step for ionic-motion
   TEIN   =    0.0    initial temperature
   TEBEG  =    0.0;   TEEND  =   0.0 temperature during run
   SMASS  =  -3.00    Nose mass-parameter (am)
   estimated Nose-frequenzy (Omega)   =  0.10E-29 period in steps = 0.13E+47 mass=  -0.156E-26a.u.
   SCALEE = 1.0000    scale energy and forces
   NPACO  =    256;   APACO  = 10.0  distance and # of slots for P.C.
   PSTRESS=    0.0 pullay stress

  Mass of Ions in am
   POMASS =  58.69 16.00 55.85
  Ionic Valenz
   ZVAL   =  10.00  6.00  8.00
  Atomic Wigner-Seitz radii
   RWIGS  =  -1.00 -1.00 -1.00
  virtual crystal weights 
   VCA    =   1.00  1.00  1.00
   NELECT =     496.0000    total number of electrons
   NUPDOWN=      -1.0000    fix difference up-down

 DOS related values:
   EMIN   =  10.00;   EMAX   =-10.00  energy-range for DOS
   EFERMI =   0.00
   ISMEAR =     0;   SIGMA  =   0.05  broadening in eV -4-tet -1-fermi 0-gaus

 Electronic relaxation 2 (details)
   IALGO  =     68    algorithm
   LDIAG  =      T    sub-space diagonalisation (order eigenvalues)
   LSUBROT=      F    optimize rotation matrix (better conditioning)
   TURBO    =      0    0=normal 1=particle mesh
   IRESTART =      0    0=no restart 2=restart with 2 vectors
   NREBOOT  =      0    no. of reboots
   NMIN     =      0    reboot dimension
   EREF     =   0.00    reference energy to select bands
   IMIX   =      4    mixing-type and parameters
     AMIX     =   0.40;   BMIX     =  1.00
     AMIX_MAG =   1.60;   BMIX_MAG =  1.00
     AMIN     =   0.10
     WC   =   100.;   INIMIX=   1;  MIXPRE=   1;  MAXMIX= -45

 Intra band minimization:
   WEIMIN = 0.0010     energy-eigenvalue tresh-hold
   EBREAK =  0.79E-08  absolut break condition
   DEPER  =   0.30     relativ break condition  

   TIME   =   0.40     timestep for ELM

  volume/ion in A,a.u.               =      24.79       167.27
  Fermi-wavevector in a.u.,A,eV,Ry     =   1.111146  2.099761 16.798358  1.234644
  Thomas-Fermi vector in A             =   2.247705
 
 Write flags
   LWAVE        =      F    write WAVECAR
   LDOWNSAMPLE  =      F    k-point downsampling of WAVECAR
   LCHARG       =      F    write CHGCAR
   LVTOT        =      F    write LOCPOT, total local potential
   LVHAR        =      F    write LOCPOT, Hartree potential only
   LELF         =      F    write electronic localiz. function (ELF)
   LORBIT       =     11    0 simple, 1 ext, 2 COOP (PROOUT), +10 PAW based schemes


 Dipole corrections
   LMONO  =      F    monopole corrections only (constant potential shift)
   LDIPOL =      F    correct potential (dipole corrections)
   IDIPOL =      3    1-x, 2-y, 3-z, 4-all directions 
   EPSILON=  1.0000000 bulk dielectric constant

 LDA+U is selected, type is set to LDAUTYPE =  2
   angular momentum for each species LDAUL =     2   -1    2
   U (eV)           for each species LDAUU =   5.3  0.0  4.0
   J (eV)           for each species LDAUJ =   0.0  0.0  0.0
 Exchange correlation treatment:
   GGA     =    PE    GGA type
   LEXCH   =     8    internal setting for exchange type
   LIBXC   =     F    Libxc                    
   VOSKOWN =     0    Vosko Wilk Nusair interpolation
   LHFCALC =     F    Hartree Fock is set to
   LHFONE  =     F    Hartree Fock one center treatment
   AEXX    =    0.0000 exact exchange contribution

 Linear response parameters
   LEPSILON=     F    determine dielectric tensor
   LRPA    =     F    only Hartree local field effects (RPA)
   LNABLA  =     F    use nabla operator in PAW spheres
   LVEL    =     F    velocity operator in full k-point grid
   CSHIFT  =0.1000    complex shift for real part using Kramers Kronig
   OMEGAMAX=  -1.0    maximum frequency
   DEG_THRESHOLD= 0.2000000E-02 threshold for treating states as degnerate
   RTIME   =   -0.100 relaxation time in fs
  (WPLASMAI=    0.000 imaginary part of plasma frequency in eV, 0.658/RTIME)
   DFIELD  = 0.0000000 0.0000000 0.0000000 field for delta impulse in time
 
  Optional k-point grid parameters
   LKPOINTS_OPT  =     F    use optional k-point grid
   KPOINTS_OPT_MODE=     1    mode for optional k-point grid
 
 Orbital magnetization related:
   ORBITALMAG=     F  switch on orbital magnetization
   LCHIMAG   =     F  perturbation theory with respect to B field
   DQ        =  0.001000  dq finite difference perturbation B field
   LLRAUG    =     F  two centre corrections for induced B field



--------------------------------------------------------------------------------------------------------


 conjugate gradient relaxation of ions
 charge density and potential will be updated during run
 spin polarized calculation
 RMM-DIIS sequential band-by-band and
  variant of blocked Davidson during initial phase
 perform sub-space diagonalisation
    before iterative eigenvector-optimisation
 modified Broyden-mixing scheme, WC =      100.0
 initial mixing is a Kerker type mixing with AMIX =  0.4000 and BMIX =      1.0000
 Hartree-type preconditioning will be used
 using additional bands           68
 real space projection scheme for non local part
 use partial core corrections
 calculate Harris-corrections to forces 
   (improved forces if not selfconsistent)
 use gradient corrections 
 use of overlap-Matrix (Vanderbilt PP)
 Gauss-broadening in eV      SIGMA  =   0.05


--------------------------------------------------------------------------------------------------------


  energy-cutoff  :      400.00
  volume of cell :     1586.33
      direct lattice vectors                 reciprocal lattice vectors
     8.258574486  0.000000000  0.000000000     0.121086272  0.000000000  0.000000000
     0.000000000  8.258574486  0.000000000     0.000000000  0.121086272  0.000000000
     0.000000000  0.000000000 23.258575439     0.000000000  0.000000000  0.042994895

  length of vectors
     8.258574486  8.258574486 23.258575439     0.121086272  0.121086272  0.042994895


 
 k-points in units of 2pi/SCALE and weight: Auto-mesh                               
   0.00000000  0.00000000  0.00000000       0.111
   0.04036209  0.00000000  0.00000000       0.222
   0.00000000  0.04036209  0.00000000       0.222
   0.04036209  0.04036209  0.00000000       0.222
  -0.04036209  0.04036209  0.00000000       0.222
 
 k-points in reciprocal lattice and weights: Auto-mesh                               
   0.00000000  0.00000000  0.00000000       0.111
   0.33333333  0.00000000  0.00000000       0.222
   0.00000000  0.33333333  0.00000000       0.222
   0.33333333  0.33333333  0.00000000       0.222
  -0.33333333  0.33333333  0.00000000       0.222
 
 position of ions in fractional coordinates (direct lattice) 
   0.99955380  0.99955410  0.32094011
   0.24955381  0.74955416  0.32094011
   0.74955380  0.24955414  0.32094011
   0.00026176  0.75026143  0.05189840
   0.50026178  0.25026143  0.05189840
   0.75026178  0.00026144  0.05189840
   0.24984810  0.24984813  0.14064920
   0.99984807  0.49984816  0.14064920
   0.74984813  0.74984813  0.14064920
   0.25022680  0.00022675  0.23211554
   0.50022680  0.75022674  0.23211554
   0.75022680  0.50022674  0.23211554
   0.24955380  0.24955413  0.32094011
   0.99955380  0.49955413  0.32094011
   0.49955380  0.99955416  0.32094011
   0.00026177  0.25026143  0.05189839
   0.25026178  0.00026143  0.05189840
   0.75026178  0.50026143  0.05189839
   0.99984807  0.99984813  0.14064918
   0.24984808  0.74984813  0.14064920
   0.49984810  0.49984816  0.14064918
   0.00022679  0.75022674  0.23211554
   0.50022680  0.25022674  0.23211554
   0.75022680  0.00022675  0.23211554
   0.00025594  0.00025579  0.05035364
   0.24972881  0.99972898  0.32250839
   0.99972880  0.24972899  0.32250839
   0.25025597  0.25025579  0.05035364
   0.00032145  0.00032137  0.23158075
   0.24980323  0.99980330  0.14127545
   0.99980319  0.24980329  0.14127545
   0.25032145  0.25032136  0.23158076
   0.00025592  0.50025582  0.05035363
   0.24972880  0.49972901  0.32250836
   0.99972880  0.74972898  0.32250839
   0.25025594  0.75025576  0.05035364
   0.00032147  0.50032139  0.23158076
   0.24980323  0.49980327  0.14127545
   0.99980319  0.74980330  0.14127545
   0.25032145  0.75032139  0.23158075
   0.50025600  0.00025579  0.05035362
   0.74972880  0.99972898  0.32250839
   0.49972880  0.24972902  0.32250836
   0.75025594  0.25025579  0.05035363
   0.50032145  0.00032137  0.23158076
   0.74980319  0.99980330  0.14127545
   0.49980322  0.24980329  0.14127545
   0.75032145  0.25032139  0.23158076
   0.50025594  0.50025576  0.05035364
   0.74972880  0.49972901  0.32250839
   0.49972883  0.74972904  0.32250839
   0.75025594  0.75025576  0.05035362
   0.50032145  0.50032139  0.23158075
   0.74980319  0.49980330  0.14127545
   0.49980322  0.74980330  0.14127547
   0.75032145  0.75032139  0.23158076
   0.49955380  0.49955413  0.32094011
   0.25026175  0.50026143  0.05189842
   0.49984810  0.99984813  0.14064918
   0.00022680  0.25022677  0.23211554
   0.74955380  0.74955416  0.32094011
   0.50026178  0.75026143  0.05189841
   0.74984813  0.24984816  0.14064918
   0.25022680  0.50022674  0.23211554
 
 position of ions in cartesian coordinates  (Angst):
   8.25488951  8.25489197  7.46460969
   2.06095877  6.19024884  7.46460969
   6.19024588  2.06096147  7.46460969
   0.00216174  6.19608987  1.20708297
   4.13144920  2.06680263  1.20708297
   6.19609282  0.00215911  1.20708279
   2.06338912  2.06338937  3.27130002
   8.25731974  4.12803324  3.27130002
   6.19267661  6.19267661  3.27130002
   2.06651663  0.00187265  5.39867673
   4.13116025  6.19580338  5.39867673
   6.19580387  4.13115976  5.39867673
   2.06095864  2.06096135  7.46460969
   8.25488951  4.12560497  7.46460969
   4.12560226  8.25489246  7.46460969
   0.00216181  2.06680263  1.20708271
   2.06680558  0.00215906  1.20708288
   6.19609282  4.13144625  1.20708271
   8.25731974  8.25732023  3.27129967
   2.06338900  6.19267661  3.27130002
   4.12803275  4.12803324  3.27129967
   0.00187300  6.19580338  5.39867673
   4.13116025  2.06651614  5.39867673
   6.19580387  0.00187265  5.39867673
   0.00211366  0.00211247  1.17115391
   2.06240401  8.25633623  7.50108583
   8.25633475  2.06240549  7.50108583
   2.06675759  2.06675611  1.17115399
   0.00265472  0.00265405  5.38623833
   2.06301858  8.25695006  3.28586572
   8.25694908  2.06301908  3.28586572
   2.06729832  2.06729758  5.38623867
   0.00211350  4.13139998  1.17115373
   2.06240389  4.12704923  7.50108513
   8.25633475  6.19169261  7.50108583
   2.06675734  6.19604311  1.17115399
   0.00265487  4.13194145  5.38623867
   2.06301858  4.12766257  3.28586572
   8.25694908  6.19230644  3.28586572
   2.06729832  6.19658507  5.38623833
   4.13140145  0.00211249  1.17115339
   6.19169113  8.25633623  7.50108583
   4.12704751  2.06240573  7.50108513
   6.19604458  2.06675611  1.17115373
   4.13194194  0.00265405  5.38623867
   6.19230546  8.25695006  3.28586572
   4.12766208  2.06301908  3.28586572
   6.19658556  2.06729783  5.38623867
   4.13140096  4.13139948  1.17115382
   6.19169113  4.12704923  7.50108583
   4.12704775  6.19169310  7.50108583
   6.19604458  6.19604311  1.17115356
   4.13194194  4.13194145  5.38623833
   6.19230546  4.12766282  3.28586572
   4.12766208  6.19230644  3.28586607
   6.19658556  6.19658507  5.38623867
   4.12560226  4.12560497  7.46460969
   2.06680534  4.13144625  1.20708323
   4.12803275  8.25732023  3.27129967
   0.00187301  2.06651638  5.39867673
   6.19024588  6.19024884  7.46460969
   4.13144920  6.19608987  1.20708305
   6.19267661  2.06338962  3.27129967
   2.06651663  4.13115976  5.39867673
 


--------------------------------------------------------------------------------------------------------


 k-point   1 :   0.0000 0.0000 0.0000  plane waves:   28835
 k-point   2 :   0.3333 0.0000 0.0000  plane waves:   28837
 k-point   3 :   0.0000 0.3333 0.0000  plane waves:   28837
 k-point   4 :   0.3333 0.3333 0.0000  plane waves:   28797
 k-point   5 :  -0.3333 0.3333 0.0000  plane waves:   28797

 maximum and minimum number of plane-waves per node :      5800     5743

 maximum number of plane-waves:     28837
 maximum index in each direction: 
   IXMAX=   13   IYMAX=   13   IZMAX=   37
   IXMIN=  -13   IYMIN=  -13   IZMIN=  -37


 real space projection operators:
  total allocation   :       8541.91 KBytes
  max/ min on nodes  :       1793.22       1643.78


 parallel 3D FFT for wavefunctions:
    minimum data exchange during FFTs selected (reduces bandwidth)
 parallel 3D FFT for charge:
    minimum data exchange during FFTs selected (reduces bandwidth)


 total amount of memory used by VASP MPI-rank0   123327. kBytes
=======================================================================

   base      :      30000. kBytes
   nonlr-proj:       4127. kBytes
   fftplans  :       3778. kBytes
   grid      :       9886. kBytes
   one-center:        404. kBytes
   wavefun   :      75132. kBytes
 
     INWAV:  cpu time      0.0000: real time      0.0003
 Broyden mixing: mesh for mixing (old mesh)
   NGX = 27   NGY = 27   NGZ = 75
  (NGX  = 80   NGY  = 80   NGZ  =240)
  gives a total of  54675 points

 initial charge density was supplied:
 charge density of overlapping atoms calculated
 number of electron     496.0000000 magnetization      32.0000000
 keeping initial charge density in first step


--------------------------------------------------------------------------------------------------------


 Maximum index for non-local projection operator          368
 Maximum index for augmentation-charges          321 (set IRDMAX)


--------------------------------------------------------------------------------------------------------


 First call to EWALD:  gamma=   0.152
 Maximum number of real-space cells 4x 4x 2
 Maximum number of reciprocal cells 2x 2x 5

    FEWALD:  cpu time      0.0040: real time      0.0040


--------------------------------------- Iteration      1(   1)  ---------------------------------------


    POTLOK:  cpu time      0.0990: real time      0.0992
    SETDIJ:  cpu time      1.6897: real time      1.6899
     EDDAV:  cpu time     13.9244: real time     13.9265
       DOS:  cpu time      0.0024: real time      0.0024
    --------------------------------------------
      LOOP:  cpu time     15.7155: real time     15.7181

 eigenvalue-minimisations  :  6320
 total energy-change (2. order) : 0.5127078E+04  (-0.1903989E+05)
 number of electron     496.0000000 magnetization      32.0000000
 augmentation part      496.0000000 magnetization      32.0000000

 Free energy of the ion-electron system (eV)
  ---------------------------------------------------
  alpha Z        PSCENC =       830.52252633
  Ewald energy   TEWEN  =    228511.24919633
  -Hartree energ DENC   =   -271147.49212007
  -exchange      EXHF   =         0.00000000
  -V(xc)+E(xc)   XCENC  =      1687.77224890
  PAW double counting   =     38612.59811270   -39779.25867021
  entropy T*S    EENTRO =        -0.02532050
  eigenvalues    EBANDS =      1960.90580125
  atomic energy  EATOM  =     44450.80657341
  Solvation  Ediel_sol  =         0.00000000
  ---------------------------------------------------
  free energy    TOTEN  =      5127.07834814 eV

  energy without entropy =     5127.10366864  energy(sigma->0) =     5127.09100839


--------------------------------------------------------------------------------------------------------




--------------------------------------- Iteration      1(   2)  ---------------------------------------


     EDDAV:  cpu time     14.4964: real time     14.5015
       DOS:  cpu time      0.0024: real time      0.0024
    --------------------------------------------
      LOOP:  cpu time     14.4988: real time     14.5040

 eigenvalue-minimisations  :  6680
 total energy-change (2. order) :-0.4258385E+04  (-0.3876084E+04)
 number of electron     496.0000000 magnetization      32.0000000
 augmentation part      496.0000000 magnetization      32.0000000

 Free energy of the ion-electron system (eV)
  ---------------------------------------------------
  alpha Z        PSCENC =       830.52252633
  Ewald energy   TEWEN  =    228511.24919633
  -Hartree energ DENC   =   -271147.49212007
  -exchange      EXHF   =         0.00000000
  -V(xc)+E(xc)   XCENC  =      1687.77224890
  PAW double counting   =     38612.59811270   -39779.25867021
  entropy T*S    EENTRO =        -0.03466638
  eigenvalues    EBANDS =     -2297.46963416
  atomic energy  EATOM  =     44450.80657341
  Solvation  Ediel_sol  =         0.00000000
  ---------------------------------------------------
  free energy    TOTEN  =       868.69356685 eV

  energy without entropy =      868.72823323  energy(sigma->0) =      868.71090004


--------------------------------------------------------------------------------------------------------




--------------------------------------- Iteration      1(   3)  ---------------------------------------


     EDDAV:  cpu time     16.7094: real time     16.7152
       DOS:  cpu time      0.0022: real time      0.0022
    --------------------------------------------
      LOOP:  cpu time     16.7117: real time     16.7174

 eigenvalue-minimisations  :  7996
 total energy-change (2. order) :-0.1125421E+04  (-0.1057133E+04)
 number of electron     496.0000000 magnetization      32.0000000
 augmentation part      496.0000000 magnetization      32.0000000

 Free energy of the ion-electron system (eV)
  ---------------------------------------------------
  alpha Z        PSCENC =       830.52252633
  Ewald energy   TEWEN  =    228511.24919633
  -Hartree energ DENC   =   -271147.49212007
  -exchange      EXHF   =         0.00000000
  -V(xc)+E(xc)   XCENC  =      1687.77224890
  PAW double counting   =     38612.59811270   -39779.25867021
  entropy T*S    EENTRO =        -0.06202929
  eigenvalues    EBANDS =     -3422.86306444
  atomic energy  EATOM  =     44450.80657341
  Solvation  Ediel_sol  =         0.00000000
  ---------------------------------------------------
  free energy    TOTEN  =      -256.72722634 eV

  energy without entropy =     -256.66519705  energy(sigma->0) =     -256.69621170


--------------------------------------------------------------------------------------------------------




--------------------------------------- Iteration      1(   4)  ---------------------------------------


     EDDAV:  cpu time     15.3167: real time     15.3213
       DOS:  cpu time      0.0025: real time      0.0025
    --------------------------------------------
      LOOP:  cpu time     15.3193: real time     15.3238

 eigenvalue-minimisations  :  7160
 total energy-change (2. order) :-0.1187922E+03  (-0.1151221E+03)
 number of electron     496.0000000 magnetization      32.0000000
 augmentation part      496.0000000 magnetization      32.0000000

 Free energy of the ion-electron system (eV)
  ---------------------------------------------------
  alpha Z        PSCENC =       830.52252633
  Ewald energy   TEWEN  =    228511.24919633
  -Hartree energ DENC   =   -271147.49212007
  -exchange      EXHF   =         0.00000000
  -V(xc)+E(xc)   XCENC  =      1687.77224890
  PAW double counting   =     38612.59811270   -39779.25867021
  entropy T*S    EENTRO =        -0.07020466
  eigenvalues    EBANDS =     -3541.64711958
  atomic energy  EATOM  =     44450.80657341
  Solvation  Ediel_sol  =         0.00000000
  ---------------------------------------------------
  free energy    TOTEN  =      -375.51945685 eV

  energy without entropy =     -375.44925219  energy(sigma->0) =     -375.48435452


--------------------------------------------------------------------------------------------------------




--------------------------------------- Iteration      1(   5)  ---------------------------------------


     EDDAV:  cpu time     16.7297: real time     16.7360
       DOS:  cpu time      0.0023: real time      0.0023
    CHARGE:  cpu time      0.4308: real time      0.4310
    MIXING:  cpu time      0.0030: real time      0.0031
    --------------------------------------------
      LOOP:  cpu time     17.1658: real time     17.1723

 eigenvalue-minimisations  :  8024
 total energy-change (2. order) :-0.5020195E+01  (-0.4986163E+01)
 number of electron     495.9999725 magnetization      32.8107230
 augmentation part      197.2127087 magnetization      19.5255602

 Broyden mixing:
  rms(total) = 0.94161E+01    rms(broyden)= 0.93957E+01
  rms(prec ) = 0.96877E+01
  weight for this iteration     100.00

 Free energy of the ion-electron system (eV)
  ---------------------------------------------------
  alpha Z        PSCENC =       830.52252633
  Ewald energy   TEWEN  =    228511.24919633
  -Hartree energ DENC   =   -271147.49212007
  -exchange      EXHF   =         0.00000000
  -V(xc)+E(xc)   XCENC  =      1687.77224890
  PAW double counting   =     38612.59811270   -39779.25867021
  entropy T*S    EENTRO =        -0.07017955
  eigenvalues    EBANDS =     -3546.66733932
  atomic energy  EATOM  =     44450.80657341
  Solvation  Ediel_sol  =         0.00000000
  ---------------------------------------------------
  free energy    TOTEN  =      -380.53965148 eV

  energy without entropy =     -380.46947193  energy(sigma->0) =     -380.50456170


--------------------------------------------------------------------------------------------------------




--------------------------------------- Iteration      1(   6)  ---------------------------------------


    POTLOK:  cpu time      0.0962: real time      0.0978
    SETDIJ:  cpu time      1.7085: real time      1.7087
    EDDIAG:  cpu time      2.0874: real time      2.0878
  RMM-DIIS:  cpu time      5.8755: real time      5.8768
    ORTHCH:  cpu time      0.6151: real time      0.6152
       DOS:  cpu time      0.0024: real time      0.0024
    CHARGE:  cpu time      0.4192: real time      0.4192
    MIXING:  cpu time      0.0031: real time      0.0031
    --------------------------------------------
      LOOP:  cpu time     10.8074: real time     10.8109

 eigenvalue-minimisations  :  6422
 total energy-change (2. order) : 0.4383372E+02  (-0.6291154E+02)
 number of electron     495.9999608 magnetization      32.7770226
 augmentation part      210.5424636 magnetization      23.3546228

 Broyden mixing:
  rms(total) = 0.14983E+02    rms(broyden)= 0.14979E+02
  rms(prec ) = 0.15075E+02
  weight for this iteration     100.00

 eigenvalues of (default mixing * dielectric matrix)
  average eigenvalue GAMMA=   0.1453
  0.1453

 Free energy of the ion-electron system (eV)
  ---------------------------------------------------
  alpha Z        PSCENC =       830.52252633
  Ewald energy   TEWEN  =    228511.24919633
  -Hartree energ DENC   =   -271189.32202771
  -exchange      EXHF   =         0.00000000
  -V(xc)+E(xc)   XCENC  =      1729.19567977
  PAW double counting   =     42014.00339333   -43015.53996362
  entropy T*S    EENTRO =        -0.05346875
  eigenvalues    EBANDS =     -3667.56784237
  atomic energy  EATOM  =     44450.80657341
  Solvation  Ediel_sol  =         0.00000000
  ---------------------------------------------------
  free energy    TOTEN  =      -336.70593329 eV

  energy without entropy =     -336.65246454  energy(sigma->0) =     -336.67919891


--------------------------------------------------------------------------------------------------------




--------------------------------------- Iteration      1(   7)  ---------------------------------------


    POTLOK:  cpu time      0.0984: real time      0.0999
    SETDIJ:  cpu time      1.7072: real time      1.7074
    EDDIAG:  cpu time      2.0952: real time      2.0955
  RMM-DIIS:  cpu time      6.7711: real time      6.7725
    ORTHCH:  cpu time      0.6146: real time      0.6146
       DOS:  cpu time      0.0024: real time      0.0024
    CHARGE:  cpu time      0.4163: real time      0.4164
    MIXING:  cpu time      0.0033: real time      0.0033
    --------------------------------------------
      LOOP:  cpu time     11.7084: real time     11.7121

 eigenvalue-minimisations  :  7296
 total energy-change (2. order) :-0.4034859E+01  (-0.1217096E+02)
 number of electron     495.9999731 magnetization      32.7607240
 augmentation part      205.7961763 magnetization      23.6556366

 Broyden mixing:
  rms(total) = 0.90189E+01    rms(broyden)= 0.90172E+01
  rms(prec ) = 0.90973E+01
  weight for this iteration     100.00

 eigenvalues of (default mixing * dielectric matrix)
  average eigenvalue GAMMA=   0.3995
  0.3995  0.3995

 Free energy of the ion-electron system (eV)
  ---------------------------------------------------
  alpha Z        PSCENC =       830.52252633
  Ewald energy   TEWEN  =    228511.24919633
  -Hartree energ DENC   =   -271222.39819972
  -exchange      EXHF   =         0.00000000
  -V(xc)+E(xc)   XCENC  =      1720.85216805
  PAW double counting   =     42648.90606864   -43688.58702516
  entropy T*S    EENTRO =        -0.03664326
  eigenvalues    EBANDS =     -3592.05545709
  atomic energy  EATOM  =     44450.80657341
  Solvation  Ediel_sol  =         0.00000000
  ---------------------------------------------------
  free energy    TOTEN  =      -340.74079247 eV

  energy without entropy =     -340.70414921  energy(sigma->0) =     -340.72247084


--------------------------------------------------------------------------------------------------------




--------------------------------------- Iteration      1(   8)  ---------------------------------------


    POTLOK:  cpu time      0.0985: real time      0.1019
    SETDIJ:  cpu time      1.7096: real time      1.7098
    EDDIAG:  cpu time      2.0858: real time      2.0863
  RMM-DIIS:  cpu time      5.9658: real time      5.9688
    ORTHCH:  cpu time      0.6161: real time      0.6164
       DOS:  cpu time      0.0022: real time      0.0022
    CHARGE:  cpu time      0.4151: real time      0.4153
    MIXING:  cpu time      0.0035: real time      0.0034
    --------------------------------------------
      LOOP:  cpu time     10.8967: real time     10.9041

 eigenvalue-minimisations  :  6397
 total energy-change (2. order) :-0.5482002E+02  (-0.4733591E+01)
 number of electron     495.9999784 magnetization      32.1058890
 augmentation part      205.9437037 magnetization      29.4370469

 Broyden mixing:
  rms(total) = 0.14163E+02    rms(broyden)= 0.14162E+02
  rms(prec ) = 0.14771E+02
  weight for this iteration     100.00

 eigenvalues of (default mixing * dielectric matrix)
  average eigenvalue GAMMA=   0.3860
  0.4822  0.4822  0.1934

 Free energy of the ion-electron system (eV)
  ---------------------------------------------------
  alpha Z        PSCENC =       830.52252633
  Ewald energy   TEWEN  =    228511.24919633
  -Hartree energ DENC   =   -271264.85275099
  -exchange      EXHF   =         0.00000000
  -V(xc)+E(xc)   XCENC  =      1715.98064786
  PAW double counting   =     44136.35918807   -45221.50344836
  entropy T*S    EENTRO =        -0.00519937
  eigenvalues    EBANDS =     -3554.11754476
  atomic energy  EATOM  =     44450.80657341
  Solvation  Ediel_sol  =         0.00000000
  ---------------------------------------------------
  free energy    TOTEN  =      -395.56081147 eV

  energy without entropy =     -395.55561210  energy(sigma->0) =     -395.55821178


--------------------------------------------------------------------------------------------------------




--------------------------------------- Iteration      1(   9)  ---------------------------------------


    POTLOK:  cpu time      0.0981: real time      0.0998
    SETDIJ:  cpu time      1.7082: real time      1.7084
    EDDIAG:  cpu time      2.0883: real time      2.0886
  RMM-DIIS:  cpu time      6.2962: real time      6.2977
    ORTHCH:  cpu time      0.6151: real time      0.6152
       DOS:  cpu time      0.0020: real time      0.0020
    CHARGE:  cpu time      0.4132: real time      0.4132
    MIXING:  cpu time      0.0037: real time      0.0037
    --------------------------------------------
      LOOP:  cpu time     11.2247: real time     11.2286

 eigenvalue-minimisations  :  6678
 total energy-change (2. order) : 0.4545353E+02  (-0.7482978E+01)
 number of electron     495.9999750 magnetization      31.4672048
 augmentation part      205.3530686 magnetization      21.7929370

 Broyden mixing:
  rms(total) = 0.73730E+01    rms(broyden)= 0.73696E+01
  rms(prec ) = 0.75383E+01
  weight for this iteration     100.00

 eigenvalues of (default mixing * dielectric matrix)
  average eigenvalue GAMMA=   0.5425
  0.8303  0.8303  0.3369  0.1725

 Free energy of the ion-electron system (eV)
  ---------------------------------------------------
  alpha Z        PSCENC =       830.52252633
  Ewald energy   TEWEN  =    228511.24919633
  -Hartree energ DENC   =   -271193.58235970
  -exchange      EXHF   =         0.00000000
  -V(xc)+E(xc)   XCENC  =      1704.40331482
  PAW double counting   =     44732.96018372   -45838.32386703
  entropy T*S    EENTRO =        -0.00000023
  eigenvalues    EBANDS =     -3548.14285229
  atomic energy  EATOM  =     44450.80657341
  Solvation  Ediel_sol  =         0.00000000
  ---------------------------------------------------
  free energy    TOTEN  =      -350.10728465 eV

  energy without entropy =     -350.10728442  energy(sigma->0) =     -350.10728453


--------------------------------------------------------------------------------------------------------




--------------------------------------- Iteration      1(  10)  ---------------------------------------


    POTLOK:  cpu time      0.0985: real time      0.1005
    SETDIJ:  cpu time      1.7116: real time      1.7118
    EDDIAG:  cpu time      2.0856: real time      2.0859
  RMM-DIIS:  cpu time      6.1109: real time      6.1119
    ORTHCH:  cpu time      0.6148: real time      0.6150
       DOS:  cpu time      0.0026: real time      0.0026
    CHARGE:  cpu time      0.4158: real time      0.4158
    MIXING:  cpu time      0.0039: real time      0.0039
    --------------------------------------------
      LOOP:  cpu time     11.0437: real time     11.0473

 eigenvalue-minimisations  :  6638
 total energy-change (2. order) :-0.1270961E+02  (-0.3639127E+01)
 number of electron     495.9999672 magnetization      30.6325787
 augmentation part      204.4721182 magnetization      29.3153080

 Broyden mixing:
  rms(total) = 0.11680E+02    rms(broyden)= 0.11677E+02
  rms(prec ) = 0.12463E+02
  weight for this iteration     100.00

 eigenvalues of (default mixing * dielectric matrix)
  average eigenvalue GAMMA=   0.5508
  1.0007  1.0007  0.3027  0.3027  0.1475

 Free energy of the ion-electron system (eV)
  ---------------------------------------------------
  alpha Z        PSCENC =       830.52252633
  Ewald energy   TEWEN  =    228511.24919633
  -Hartree energ DENC   =   -271329.95443452
  -exchange      EXHF   =         0.00000000
  -V(xc)+E(xc)   XCENC  =      1704.80844718
  PAW double counting   =     46684.52029772   -47829.35392146
  entropy T*S    EENTRO =        -0.02191420
  eigenvalues    EBANDS =     -3385.39366555
  atomic energy  EATOM  =     44450.80657341
  Solvation  Ediel_sol  =         0.00000000
  ---------------------------------------------------
  free energy    TOTEN  =      -362.81689477 eV

  energy without entropy =     -362.79498057  energy(sigma->0) =     -362.80593767


--------------------------------------------------------------------------------------------------------




--------------------------------------- Iteration      1(  11)  ---------------------------------------


    POTLOK:  cpu time      0.0981: real time      0.1018
    SETDIJ:  cpu time      1.7121: real time      1.7123
    EDDIAG:  cpu time      2.0915: real time      2.0917
  RMM-DIIS:  cpu time      6.0604: real time      6.0617
    ORTHCH:  cpu time      0.6150: real time      0.6152
       DOS:  cpu time      0.0025: real time      0.0025
    CHARGE:  cpu time      0.4167: real time      0.4168
    MIXING:  cpu time      0.0041: real time      0.0041
    --------------------------------------------
      LOOP:  cpu time     11.0005: real time     11.0061

 eigenvalue-minimisations  :  6662
 total energy-change (2. order) : 0.2043435E+02  (-0.2960979E+01)
 number of electron     495.9999827 magnetization      30.2138021
 augmentation part      204.2904042 magnetization      22.3564713

 Broyden mixing:
  rms(total) = 0.49461E+01    rms(broyden)= 0.49409E+01
  rms(prec ) = 0.51100E+01
  weight for this iteration     100.00

 eigenvalues of (default mixing * dielectric matrix)
  average eigenvalue GAMMA=   0.5664
  1.5592  0.6985  0.3951  0.3951  0.2089  0.1415

 Free energy of the ion-electron system (eV)
  ---------------------------------------------------
  alpha Z        PSCENC =       830.52252633
  Ewald energy   TEWEN  =    228511.24919633
  -Hartree energ DENC   =   -271296.00560545
  -exchange      EXHF   =         0.00000000
  -V(xc)+E(xc)   XCENC  =      1699.63734014
  PAW double counting   =     47660.55811793   -48832.33276875
  entropy T*S    EENTRO =        -0.04464184
  eigenvalues    EBANDS =     -3366.77328698
  atomic energy  EATOM  =     44450.80657341
  Solvation  Ediel_sol  =         0.00000000
  ---------------------------------------------------
  free energy    TOTEN  =      -342.38254888 eV

  energy without entropy =     -342.33790704  energy(sigma->0) =     -342.36022796


--------------------------------------------------------------------------------------------------------




--------------------------------------- Iteration      1(  12)  ---------------------------------------


    POTLOK:  cpu time      0.0975: real time      0.0991
    SETDIJ:  cpu time      1.7122: real time      1.7126
    EDDIAG:  cpu time      2.0851: real time      2.0853
  RMM-DIIS:  cpu time      6.0572: real time      6.0586
    ORTHCH:  cpu time      0.6148: real time      0.6149
       DOS:  cpu time      0.0024: real time      0.0024
    CHARGE:  cpu time      0.4171: real time      0.4171
    MIXING:  cpu time      0.0043: real time      0.0043
    --------------------------------------------
      LOOP:  cpu time     10.9905: real time     10.9943

 eigenvalue-minimisations  :  6594
 total energy-change (2. order) : 0.2617335E+00  (-0.1050107E+01)
 number of electron     495.9999786 magnetization      29.8686571
 augmentation part      204.1905352 magnetization      24.4268191

 Broyden mixing:
  rms(total) = 0.50565E+01    rms(broyden)= 0.50544E+01
  rms(prec ) = 0.53310E+01
  weight for this iteration     100.00

 eigenvalues of (default mixing * dielectric matrix)
  average eigenvalue GAMMA=   0.5465
  1.7560  0.6141  0.4593  0.4593  0.2007  0.2007  0.1357

 Free energy of the ion-electron system (eV)
  ---------------------------------------------------
  alpha Z        PSCENC =       830.52252633
  Ewald energy   TEWEN  =    228511.24919633
  -Hartree energ DENC   =   -271334.54218618
  -exchange      EXHF   =         0.00000000
  -V(xc)+E(xc)   XCENC  =      1699.74294310
  PAW double counting   =     48173.32193815   -49357.54687505
  entropy T*S    EENTRO =        -0.02884910
  eigenvalues    EBANDS =     -3315.64608239
  atomic energy  EATOM  =     44450.80657341
  Solvation  Ediel_sol  =         0.00000000
  ---------------------------------------------------
  free energy    TOTEN  =      -342.12081539 eV

  energy without entropy =     -342.09196629  energy(sigma->0) =     -342.10639084


--------------------------------------------------------------------------------------------------------




--------------------------------------- Iteration      1(  13)  ---------------------------------------


    POTLOK:  cpu time      0.0975: real time      0.0991
    SETDIJ:  cpu time      1.7140: real time      1.7142
    EDDIAG:  cpu time      2.0939: real time      2.0943
  RMM-DIIS:  cpu time      5.9078: real time      5.9090
    ORTHCH:  cpu time      0.6162: real time      0.6162
       DOS:  cpu time      0.0025: real time      0.0025
    CHARGE:  cpu time      0.4192: real time      0.4193
    MIXING:  cpu time      0.0046: real time      0.0046
    --------------------------------------------
      LOOP:  cpu time     10.8556: real time     10.8591

 eigenvalue-minimisations  :  6434
 total energy-change (2. order) : 0.3265527E+00  (-0.6184542E+00)
 number of electron     495.9999788 magnetization      29.5900503
 augmentation part      204.2869407 magnetization      23.5766317

 Broyden mixing:
  rms(total) = 0.56487E+01    rms(broyden)= 0.56472E+01
  rms(prec ) = 0.60179E+01
  weight for this iteration     100.00

 eigenvalues of (default mixing * dielectric matrix)
  average eigenvalue GAMMA=   0.5229
  1.8856  0.5873  0.5873  0.4429  0.2204  0.2204  0.1318  0.1073

 Free energy of the ion-electron system (eV)
  ---------------------------------------------------
  alpha Z        PSCENC =       830.52252633
  Ewald energy   TEWEN  =    228511.24919633
  -Hartree energ DENC   =   -271381.44919287
  -exchange      EXHF   =         0.00000000
  -V(xc)+E(xc)   XCENC  =      1700.68699096
  PAW double counting   =     48381.13795029   -49570.09877424
  entropy T*S    EENTRO =        -0.01894981
  eigenvalues    EBANDS =     -3264.63058312
  atomic energy  EATOM  =     44450.80657341
  Solvation  Ediel_sol  =         0.00000000
  ---------------------------------------------------
  free energy    TOTEN  =      -341.79426271 eV

  energy without entropy =     -341.77531291  energy(sigma->0) =     -341.78478781


--------------------------------------------------------------------------------------------------------




--------------------------------------- Iteration      1(  14)  ---------------------------------------


    POTLOK:  cpu time      0.0975: real time      0.1009
    SETDIJ:  cpu time      1.7116: real time      1.7118
    EDDIAG:  cpu time      2.0882: real time      2.0887
  RMM-DIIS:  cpu time      5.8493: real time      5.8506
    ORTHCH:  cpu time      0.6147: real time      0.6150
       DOS:  cpu time      0.0026: real time      0.0026
    CHARGE:  cpu time      0.4195: real time      0.4195
    MIXING:  cpu time      0.0049: real time      0.0049
    --------------------------------------------
      LOOP:  cpu time     10.7882: real time     10.7938

 eigenvalue-minimisations  :  6400
 total energy-change (2. order) : 0.4443710E+01  (-0.4230691E+00)
 number of electron     495.9999818 magnetization      29.1822146
 augmentation part      204.0485172 magnetization      22.3700934

 Broyden mixing:
  rms(total) = 0.23135E+01    rms(broyden)= 0.23090E+01
  rms(prec ) = 0.24560E+01
  weight for this iteration     100.00

 eigenvalues of (default mixing * dielectric matrix)
  average eigenvalue GAMMA=   0.5454
  2.0153  0.6902  0.6902  0.5236  0.3267  0.2356  0.1983  0.1376  0.0913

 Free energy of the ion-electron system (eV)
  ---------------------------------------------------
  alpha Z        PSCENC =       830.52252633
  Ewald energy   TEWEN  =    228511.24919633
  -Hartree energ DENC   =   -271408.54909928
  -exchange      EXHF   =         0.00000000
  -V(xc)+E(xc)   XCENC  =      1701.60146849
  PAW double counting   =     48503.45671664   -49696.48759694
  entropy T*S    EENTRO =        -0.03164133
  eigenvalues    EBANDS =     -3229.91869685
  atomic energy  EATOM  =     44450.80657341
  Solvation  Ediel_sol  =         0.00000000
  ---------------------------------------------------
  free energy    TOTEN  =      -337.35055319 eV

  energy without entropy =     -337.31891187  energy(sigma->0) =     -337.33473253


--------------------------------------------------------------------------------------------------------




--------------------------------------- Iteration      1(  15)  ---------------------------------------


    POTLOK:  cpu time      0.0975: real time      0.0991
    SETDIJ:  cpu time      1.7116: real time      1.7118
    EDDIAG:  cpu time      2.0862: real time      2.0864
  RMM-DIIS:  cpu time      6.0276: real time      6.0287
    ORTHCH:  cpu time      0.6173: real time      0.6174
       DOS:  cpu time      0.0025: real time      0.0025
    CHARGE:  cpu time      0.4172: real time      0.4172
[...]
   -.120E+01 -.224E+01 0.190E+04   0.162E+01 0.163E+01 -.190E+04   -.408E+00 0.614E+00 0.647E+01   -.284E-02 -.247E-03 -.124E-02
   -.275E+01 -.187E+00 -.190E+04   0.259E+01 -.535E+00 0.191E+04   0.161E+00 0.723E+00 -.637E+01   -.709E-03 -.228E-03 0.778E-03
   0.360E+01 -.155E+02 -.185E+04   -.368E+01 0.163E+02 0.186E+04   0.768E-01 -.784E+00 -.715E+01   0.165E-02 0.135E-02 0.139E-02
   -.124E+02 -.440E+02 0.191E+04   0.122E+02 0.437E+02 -.192E+04   0.170E+00 0.375E+00 0.600E+01   0.197E-02 0.144E-02 -.324E-02
   0.988E+01 -.505E+02 -.607E+03   -.942E+01 0.507E+02 0.606E+03   -.445E+00 -.161E+00 0.131E+01   0.253E-03 0.197E-02 0.154E-02
   -.573E+02 -.551E+01 0.619E+03   0.576E+02 0.561E+01 -.617E+03   -.260E+00 -.983E-01 -.136E+01   0.740E-03 -.547E-03 0.492E-03
   0.439E+02 -.135E+02 0.574E+03   -.443E+02 0.131E+02 -.574E+03   0.358E+00 0.330E+00 -.422E+00   -.246E-02 0.123E-02 0.466E-03
   0.340E+02 -.637E+02 -.613E+03   -.347E+02 0.642E+02 0.612E+03   0.703E+00 -.539E+00 0.141E+01   -.184E-02 0.239E-02 0.179E-02
   -.483E+02 0.417E+00 0.190E+04   0.488E+02 0.221E+00 -.191E+04   -.539E+00 -.644E+00 0.616E+01   0.709E-03 0.223E-02 0.722E-04
   -.532E+02 -.185E+01 -.191E+04   0.539E+02 0.248E+01 0.192E+04   -.728E+00 -.611E+00 -.757E+01   -.200E-02 -.109E-02 -.583E-03
   0.523E+02 0.156E+02 -.189E+04   -.531E+02 -.164E+02 0.190E+04   0.791E+00 0.802E+00 -.595E+01   -.381E-03 -.162E-02 0.176E-02
   -.675E+02 0.475E+02 0.190E+04   0.688E+02 -.478E+02 -.191E+04   -.136E+01 0.260E+00 0.560E+01   -.130E-02 -.696E-03 -.276E-02
   -.356E+02 0.508E+02 -.614E+03   0.351E+02 -.510E+02 0.612E+03   0.445E+00 0.123E+00 0.123E+01   0.971E-04 -.131E-02 0.139E-02
   -.120E+02 0.559E+01 0.636E+03   0.123E+02 -.586E+01 -.636E+03   -.268E+00 0.256E+00 0.201E-01   0.135E-02 -.104E-03 0.243E-03
   -.644E+01 0.144E+02 0.606E+03   0.618E+01 -.143E+02 -.604E+03   0.246E+00 -.148E+00 -.132E+01   -.560E-03 -.223E-02 -.193E-02
   -.147E+02 0.636E+02 -.608E+03   0.146E+02 -.641E+02 0.606E+03   0.119E+00 0.453E+00 0.120E+01   0.153E-02 -.152E-02 0.947E-03
   0.217E+01 0.375E+02 0.186E+04   -.258E+01 -.364E+02 -.187E+04   0.394E+00 -.119E+01 0.672E+01   0.275E-02 0.292E-03 -.222E-02
   0.324E+01 0.349E+02 -.191E+04   -.324E+01 -.336E+02 0.191E+04   -.420E-02 -.139E+01 -.617E+01   -.261E-03 0.706E-03 0.197E-02
   -.336E+01 -.504E+02 -.191E+04   0.334E+01 0.494E+02 0.191E+04   0.255E-01 0.100E+01 -.582E+01   -.194E-02 -.216E-02 0.138E-02
   0.116E+02 -.386E+01 0.190E+04   -.115E+02 0.460E+01 -.190E+04   -.147E+00 -.745E+00 0.751E+01   0.450E-03 0.763E-03 0.565E-03
   -.961E+01 -.409E+01 -.576E+03   0.913E+01 0.406E+01 0.576E+03   0.479E+00 0.252E-01 0.622E+00   0.817E-03 -.100E-03 0.238E-02
   0.562E+02 -.457E+02 0.608E+03   -.564E+02 0.443E+02 -.607E+03   0.220E+00 0.137E+01 -.122E+01   0.640E-04 0.823E-03 -.537E-03
   -.430E+02 0.302E+02 0.618E+03   0.435E+02 -.305E+02 -.616E+03   -.487E+00 0.219E+00 -.162E+01   0.397E-03 0.244E-02 -.220E-02
   -.333E+02 -.112E+02 -.603E+03   0.338E+02 0.111E+02 0.601E+03   -.485E+00 0.447E-01 0.147E+01   0.191E-02 -.102E-02 -.379E-03
   0.526E+02 -.374E+02 0.190E+04   -.538E+02 0.367E+02 -.191E+04   0.121E+01 0.746E+00 0.573E+01   -.732E-03 -.172E-02 0.881E-03
   0.576E+02 -.338E+02 -.190E+04   -.593E+02 0.328E+02 0.190E+04   0.170E+01 0.106E+01 -.576E+01   0.291E-02 -.935E-03 0.234E-02
   -.546E+02 0.509E+02 -.190E+04   0.558E+02 -.501E+02 0.190E+04   -.125E+01 -.740E+00 -.548E+01   0.380E-03 0.201E-02 0.501E-03
   0.661E+02 0.256E+01 0.189E+04   -.670E+02 -.312E+01 -.190E+04   0.841E+00 0.565E+00 0.590E+01   0.280E-03 -.116E-02 -.333E-03
   0.339E+02 0.307E+01 -.646E+03   -.329E+02 -.305E+01 0.646E+03   -.976E+00 -.261E-01 -.537E-02   -.249E-02 0.460E-03 -.167E-02
   0.118E+02 0.464E+02 0.605E+03   -.120E+02 -.450E+02 -.603E+03   0.254E+00 -.141E+01 -.123E+01   0.182E-03 0.202E-03 -.263E-02
   0.630E+01 -.321E+02 0.649E+03   -.630E+01 0.324E+02 -.649E+03   0.292E-04 -.289E+00 0.276E+00   0.170E-02 -.217E-02 0.739E-03
   0.144E+02 0.106E+02 -.645E+03   -.142E+02 -.106E+02 0.645E+03   -.246E+00 0.523E-01 -.375E+00   -.449E-03 0.775E-03 -.177E-03
   -.191E+02 -.175E+02 -.251E+04   0.187E+02 0.174E+02 0.251E+04   0.395E+00 0.119E+00 0.268E+01   -.145E-02 0.467E-05 0.565E-03
   -.354E+02 -.195E+02 0.254E+04   0.349E+02 0.194E+02 -.254E+04   0.481E+00 0.142E+00 -.368E+01   0.232E-03 -.907E-03 0.433E-03
   -.194E+02 -.386E+01 0.848E+03   0.190E+02 0.343E+01 -.849E+03   0.413E+00 0.423E+00 0.546E+00   0.130E-02 0.148E-03 0.124E-03
   0.331E+01 -.336E+02 -.804E+03   -.330E+01 0.333E+02 0.806E+03   -.117E-01 0.296E+00 -.109E+01   0.501E-03 0.140E-02 0.109E-02
   0.311E+02 0.239E+02 -.253E+04   -.307E+02 -.238E+02 0.253E+04   -.459E+00 -.827E-01 0.306E+01   0.202E-03 0.195E-03 0.120E-02
   0.244E+02 0.643E+01 0.252E+04   -.241E+02 -.637E+01 -.251E+04   -.287E+00 -.704E-01 -.312E+01   0.456E-02 -.216E-02 -.594E-03
   0.115E+02 0.693E+01 0.811E+03   -.115E+02 -.668E+01 -.811E+03   -.896E-02 -.254E+00 0.645E+00   0.385E-03 0.153E-02 -.140E-02
   -.751E+01 0.197E+02 -.862E+03   0.775E+01 -.196E+02 0.862E+03   -.243E+00 -.184E+00 0.312E+00   0.211E-03 -.567E-03 0.429E-03
 -----------------------------------------------------------------------------------------------
   -.839E+00 -.166E+00 0.273E+00   -.306E-12 0.540E-12 0.796E-12   0.826E+00 0.154E+00 -.210E+00   0.177E-02 -.889E-04 0.336E-02
 
 
 POSITION                                       TOTAL-FORCE (eV/Angst)
 -----------------------------------------------------------------------------------
      0.01242      8.25557      7.48331        -0.005731      0.001693      0.012824
      2.04989      6.19459      7.50138         0.010526     -0.001285      0.006328
      6.19628      2.06195      7.51301         0.001300     -0.002258     -0.013868
     -0.00849      6.21069      1.18613         0.007698     -0.000463     -0.012881
      4.15172      2.05975      1.16036        -0.001086      0.007459      0.003688
      6.21624      0.00808      1.16816        -0.000751     -0.003232      0.002330
      2.06805      2.06871      3.24569         0.000767      0.000498     -0.000789
      0.01231      4.13601      3.24361        -0.001460     -0.000034     -0.004290
      6.19429      6.19171      3.26150         0.005006      0.001117     -0.001919
      2.06470     -0.00397      5.40962         0.002898      0.008710      0.006458
      4.13435      6.19168      5.41015        -0.001296      0.002074      0.017617
      6.19416      4.14292      5.43170        -0.007552     -0.012199     -0.003729
      2.04624      2.05502      7.50848         0.011368     -0.012712      0.001701
      0.00294      4.12726      7.51475         0.002741     -0.001276      0.001109
      4.10520      0.00154      7.49301         0.007943     -0.007027      0.001971
     -0.00738      2.06142      1.17059         0.000204      0.001737     -0.000690
      2.05040      0.00399      1.17644        -0.008416      0.002667     -0.005854
      6.20686      4.12897      1.15459        -0.001603      0.004312      0.000949
      0.00973      8.25167      3.26140        -0.011062      0.005071     -0.004748
      2.06194      6.18831      3.24971         0.013394     -0.005054      0.000924
      4.12213      4.13812      3.23813        -0.007452      0.001587     -0.006085
      0.00107      6.20015      5.40993        -0.001980      0.011051      0.002217
      4.12892      2.06671      5.41779        -0.003090     -0.002645      0.003028
      6.19097     -0.01308      5.42579         0.004620     -0.001211      0.003778
     -0.00454      0.02247      1.15153         0.011804     -0.001159     -0.007778
      2.06222      0.01188      7.52757         0.007203      0.001295      0.006065
     -0.00881      2.04023      7.51796        -0.009698      0.008599      0.003950
      2.08102      2.03371      1.09729         0.000383      0.016567     -0.008676
     -0.01791     -0.02962      5.39647         0.011523     -0.003005      0.002836
      2.03286      8.25047      3.26040         0.003193      0.006024     -0.011148
      0.06078      2.07513      3.26285         0.002976     -0.008447     -0.002048
      2.10741      2.01517      5.41940         0.003495     -0.004684     -0.004872
     -0.05297      4.11993      1.12220        -0.018468     -0.003023     -0.000324
      1.98537      4.10490      7.66655        -0.005840      0.012619     -0.009061
      0.05662      6.21197      7.52740        -0.007017      0.001125     -0.002379
      2.00678      6.21949      1.11346        -0.004251     -0.022355     -0.013481
     -0.00601      4.16084      5.40457         0.000731      0.004030     -0.001723
      2.06168      4.13827      3.24094         0.005542     -0.006646      0.001226
      0.00221      6.18556      3.27284        -0.005925      0.006915     -0.001410
      2.07431      6.24590      5.39563        -0.002684     -0.002863     -0.001269
      4.14234     -0.00068      1.13346        -0.008688      0.003669     -0.007172
      6.18533      0.00061      7.55366        -0.002030     -0.002569      0.007372
      4.12505      2.05507      7.57707         0.002100     -0.007150      0.001538
      6.19641      2.04941      1.04989        -0.004839      0.001060      0.002576
      4.14407     -0.00391      5.40605        -0.004879     -0.001813      0.009520
      6.22841      0.00639      3.27454         0.002811     -0.001800      0.001282
      4.08241      2.10047      3.25411        -0.004280     -0.002183     -0.006562
      6.14953      2.06429      5.46294        -0.002254      0.010067      0.001629
      4.18011      4.12895      1.08783         0.017278      0.001529      0.008452
      6.24722      4.13807      7.56400        -0.003133      0.003804     -0.007003
      4.07218      6.19296      7.55490        -0.000735     -0.003312     -0.001558
      6.25263      6.21179      1.14708         0.001065      0.002062      0.008209
      4.15334      4.12776      5.37085        -0.001191     -0.004152      0.002314
      6.20439      4.12965      3.26930        -0.007938     -0.003190      0.007437
      4.12274      6.15916      3.30312         0.001228      0.002750     -0.001998
      6.19008      6.19564      5.36127         0.003368     -0.008268     -0.001946
      4.08644      4.11777      7.61855        -0.011063      0.000204      0.006238
      2.03443      4.11056      1.05518         0.004772      0.003885      0.000045
      4.12422     -0.00592      3.26132         0.009296     -0.001241      0.000188
     -0.00416      2.05945      5.40874        -0.001861      0.003984      0.005049
      6.21405      6.20412      7.59138        -0.004365     -0.000898      0.004878
      4.14487      6.20205      1.07995         0.013414     -0.004866     -0.002070
      6.19886      2.07110      3.25896        -0.003420      0.002960      0.002840
      2.08488      4.13266      5.43169        -0.004608      0.001900     -0.001236
 -----------------------------------------------------------------------------------
    total drift:                               -0.011580     -0.011917      0.066231


--------------------------------------------------------------------------------------------------------



  FREE ENERGIE OF THE ION-ELECTRON SYSTEM (eV)
  ---------------------------------------------------
  free  energy   TOTEN  =      -348.23189633 eV

  energy  without entropy=     -348.23189633  energy(sigma->0) =     -348.23189633
 
 d Force = 0.9794850E-03[ 0.366E-03, 0.159E-02]  d Energy = 0.1425621E-02-0.446E-03
 d Force = 0.8943366E+02[ 0.894E+02, 0.894E+02]  d Ewald  = 0.8943367E+02-0.288E-05


--------------------------------------------------------------------------------------------------------


    POTLOK:  cpu time      1.8199: real time      1.8201


--------------------------------------------------------------------------------------------------------


 stress matrix after NEB project (eV)
     -8.75699     -0.22191     -0.50279
     -0.21986    -16.80170     -0.33819
     -0.50757     -0.33507    -22.86643
  FORCES: max atom, RMS     0.026449    0.010961
  FORCE total and by dimension    0.087688    0.022355
  Stress total and by dimension   29.710102   22.866429
 Conjugate gradient step on ions:
 trial-energy change:   -0.001426  1 .order   -0.000979   -0.001593   -0.000366
  (g-gl).g = 0.839E-03      g.g   = 0.892E-03  gl.gl    = 0.239E-02
 g(Force)  = 0.892E-03   g(Stress)= 0.000E+00 ortho     = 0.165E-03
 gamma     =   0.35089
 trial     =   1.67739
 opt step  =   1.82545  (harmonic =   2.17673) maximal distance =0.00379291
 next E    =  -348.231913   (d E  =  -0.00144)


--------------------------------------------------------------------------------------------------------


  
 reached required accuracy - stopping structural energy minimisation
     LOOP+:  cpu time    349.1494: real time    349.2382
    4ORBIT:  cpu time      0.0000: real time      0.0000



 total charge

# of ion       s       p       d       tot
------------------------------------------
    1        0.342   0.395   8.215   8.953
    2        0.348   0.404   8.216   8.968
    3        0.341   0.391   8.213   8.944
    4        0.350   0.409   8.222   8.980
    5        0.340   0.389   8.204   8.933
    6        0.342   0.396   8.213   8.951
    7        0.351   0.441   8.257   9.050
    8        0.347   0.433   8.252   9.032
    9        0.347   0.433   8.251   9.031
   10        0.352   0.444   8.262   9.058
   11        0.347   0.434   8.253   9.035
   12        0.346   0.430   8.245   9.021
   13        0.343   0.394   8.211   8.948
   14        0.352   0.408   8.203   8.964
   15        0.343   0.392   8.186   8.920
   16        0.341   0.391   8.203   8.935
   17        0.347   0.397   8.199   8.943
   18        0.350   0.403   8.195   8.948
   19        0.354   0.443   8.248   9.044
   20        0.347   0.431   8.249   9.027
   21        0.353   0.442   8.239   9.034
   22        0.352   0.441   8.245   9.038
   23        0.354   0.441   8.244   9.038
   24        0.348   0.435   8.250   9.033
   25        1.576   3.458   0.000   5.034
   26        1.576   3.456   0.000   5.032
   27        1.576   3.456   0.000   5.032
   28        1.576   3.458   0.000   5.033
   29        1.577   3.494   0.000   5.071
   30        1.577   3.492   0.000   5.069
   31        1.577   3.494   0.000   5.070
   32        1.578   3.494   0.000   5.072
   33        1.575   3.463   0.000   5.039
   34        1.575   3.456   0.000   5.031
   35        1.576   3.463   0.000   5.039
   36        1.575   3.462   0.000   5.037
   37        1.578   3.494   0.000   5.072
   38        1.577   3.491   0.000   5.068
   39        1.578   3.487   0.000   5.065
   40        1.578   3.489   0.000   5.067
   41        1.577   3.459   0.000   5.036
   42        1.577   3.457   0.000   5.033
   43        1.576   3.458   0.000   5.034
   44        1.576   3.449   0.000   5.025
   45        1.577   3.489   0.000   5.066
   46        1.578   3.496   0.000   5.074
   47        1.578   3.494   0.000   5.072
   48        1.578   3.493   0.000   5.071
   49        1.576   3.461   0.000   5.037
   50        1.576   3.462   0.000   5.038
   51        1.576   3.462   0.000   5.038
   52        1.576   3.461   0.000   5.037
   53        1.578   3.494   0.000   5.072
   54        1.579   3.489   0.000   5.068
   55        1.577   3.493   0.000   5.070
   56        1.578   3.486   0.000   5.064
   57        0.295   0.342   6.094   6.731
   58        0.294   0.342   6.100   6.736
   59        0.302   0.396   6.241   6.939
   60        0.302   0.396   6.245   6.943
   61        0.295   0.346   6.119   6.761
   62        0.294   0.344   6.119   6.757
   63        0.305   0.393   6.168   6.866
   64        0.302   0.386   6.163   6.850
--------------------------------------------------
tot         61.181 124.170 246.724 432.076



 magnetization (x)

# of ion       s       p       d       tot
------------------------------------------
    1       -0.001   0.000  -1.695  -1.696
    2       -0.004  -0.003  -1.703  -1.709
    3        0.000  -0.004  -1.700  -1.703
    4       -0.003  -0.003  -1.701  -1.707
    5       -0.001  -0.002  -1.705  -1.708
    6       -0.001   0.000  -1.695  -1.696
    7        0.000   0.004  -1.707  -1.702
    8        0.002   0.005  -1.700  -1.693
    9        0.002   0.005  -1.713  -1.707
   10        0.001   0.005  -1.707  -1.701
   11        0.002   0.005  -1.702  -1.695
   12        0.002   0.004  -1.708  -1.702
   13        0.001  -0.001   1.700   1.700
   14        0.014   0.007   1.726   1.746
   15        0.012   0.009   1.737   1.757
   16        0.002  -0.000   1.711   1.713
   17        0.010   0.008   1.724   1.742
   18        0.014   0.006   1.730   1.749
   19        0.005   0.001   1.728   1.734
   20       -0.003  -0.007   1.705   1.694
   21        0.009   0.004   1.741   1.754
   22        0.005   0.001   1.728   1.735
   23        0.006   0.000   1.727   1.734
   24       -0.002  -0.007   1.707   1.698
   25        0.003   0.041   0.000   0.044
   26       -0.003  -0.036   0.000  -0.039
   27        0.001   0.007   0.000   0.008
   28        0.004   0.017   0.000   0.021
   29        0.006   0.019   0.000   0.025
   30        0.007   0.058   0.000   0.065
   31        0.004   0.034   0.000   0.038
   32        0.008   0.051   0.000   0.059
   33        0.004   0.009   0.000   0.013
   34        0.009   0.066   0.000   0.075
   35        0.004   0.034   0.000   0.038
   36        0.009   0.075   0.000   0.084
   37        0.008   0.056   0.000   0.064
   38        0.008   0.054   0.000   0.062
   39       -0.000  -0.016   0.000  -0.016
   40        0.000  -0.024   0.000  -0.024
   41        0.001   0.013   0.000   0.014
   42        0.003   0.044   0.000   0.047
   43        0.009   0.095   0.000   0.105
   44        0.004   0.027   0.000   0.031
   45        0.004   0.045   0.000   0.049
   46        0.006   0.024   0.000   0.030
   47        0.007   0.015   0.000   0.022
   48        0.007   0.008   0.000   0.015
   49        0.009   0.081   0.000   0.090
   50        0.004   0.008   0.000   0.012
   51        0.005   0.017   0.000   0.022
   52       -0.001  -0.040   0.000  -0.042
   53        0.007   0.065   0.000   0.073
   54        0.001   0.025   0.000   0.026
   55        0.007   0.036   0.000   0.044
   56        0.001  -0.000   0.000   0.000
   57        0.040   0.029   3.684   3.753
   58        0.038   0.031   3.676   3.745
   59        0.004   0.006  -0.022  -0.012
   60        0.004   0.006  -0.025  -0.016
   61        0.022   0.013   3.636   3.672
   62        0.021   0.013   3.634   3.668
   63        0.013   0.010   3.642   3.664
   64        0.015   0.013   3.654   3.683
--------------------------------------------------
tot          0.377   1.067  22.105  23.549
 

 total amount of memory used by VASP MPI-rank0   123327. kBytes
=======================================================================

   base      :      30000. kBytes
   nonlr-proj:       4127. kBytes
   fftplans  :       3778. kBytes
   grid      :       9886. kBytes
   one-center:        404. kBytes
   wavefun   :      75132. kBytes
 
  
  
 General timing and accounting informations for this job:
 ========================================================
  
                  Total CPU time used (sec):     7308.826
                            User time (sec):     7081.797
                          System time (sec):      227.029
                         Elapsed time (sec):     7311.621
  
                   Maximum memory used (kb):      261232.
                   Average memory used (kb):          N/A
  
                          Minor page faults:       465492
                          Major page faults:            0
                 Voluntary context switches:        80955
