 vasp.6.3.2 27Jun22 (build Aug 17 2022 19:46:44) complex                        
  
 executed on           tv1STDVTST date 2023.05.23  06:49:21
 running   20 mpi-ranks, with    1 threads/rank
 distrk:  each k-point on   20 cores,    1 groups
 distr:  one band on NCORE=   5 cores,    4 groups


--------------------------------------------------------------------------------------------------------


 INCAR:
    = \=\=\=\=\=\=\=\=\=\=\=\=\=\=\=\=\=\=\=\=\=\=\=\=\=\=\=\=\=\=\=\=\=\=\=\=\=\=\=\=\=\=\=\=\=\=\=\=\=\=\=\=\=\=\=\=\=\=\=\=\=\=\=\=\=\=\=\=\=\=\=\=
    = \=\=\=\=\=\=\=\=\=\=\=\=\=\=\=\=\=\=\=\=\=\=\=\=\=\=\=\=\=\=\=\=\=\=\=\=\=\=\=\=\=\=\=\=\=\=\=\=\=\=\=\=\=\=\=\=\=\=\=\=\=\=\=\=\=\=\=\=\=\=\=\=
   ISTART = 0
   ICHARG = 2
   IDIPOL = 3
   MAGMOM = 12*-2 12*2 32*0 8*4
   NUPDOWN = 32
    = \=\=\=\=\=\=\=\=\=\=\=\=\=\=\=\=\=\=\=\=\=\=\=\=\=\=\=\=\=\=\=\=\=\=\=\=\=\=\=\=\=\=\=\=\=\=\=\=\=\=\=\=\=\=\=\=\=\=\=\=\=\=\=\=\=\=\=\=\=\=\=\=
    = \=\=\=\=\=\=\=\=\=\=\=\=\=\=\=\=\=\=\=\=\=\=\=\=\=\=\=\=\=\=\=\=\=\=\=\=\=\=\=\=\=\=\=\=\=\=\=\=\=\=\=\=\=\=\=\=\=\=\=\=\=\=\=\=\=\=\=\=\=\=\=\=
   ISPIN = 2
   LDAU = .TRUE
   LDAUTYPE = 2
   LDAUL = 2 -1 2
   LDAUU = 5.3 0 4
   LDAUJ = 0 0 0
    = \=\=\=\=\=\=\=\=\=\=\=\=\=\=\=\=\=\=\=\=\=\=\=\=\=\=\=\=\=\=\=\=\=\=\=\=\=\=\=\=\=\=\=\=\=\=\=\=\=\=\=\=\=\=\=\=\=\=\=\=\=\=\=\=\=\=\=\=\=\=\=\=
    = \=\=\=\=\=\=\=\=\=\=\=\=\=\=\=\=\=\=\=\=\=\=\=\=\=\=\=\=\=\=\=\=\=\=\=\=\=\=\=\=\=\=\=\=\=\=\=\=\=\=\=\=\=\=\=\=\=\=\=\=\=\=\=\=\=\=\=\=\=\=\=\=
   ENCUT = 400
   PREC = N
   EDIFF = 1E-05
   GGA = PE
   ISMEAR = 0
   SIGMA = 0.05
   ALGO = F
   LREAL = Auto
   LMAXMIX = 4
   LASPH = .TRUE
    = \=\=\=\=\=\=\=\=\=\=\=\=\=\=\=\=\=\=\=\=\=\=\=\=\=\=\=\=\=\=\=\=\=\=\=\=\=\=\=\=\=\=\=\=\=\=\=\=\=\=\=\=\=\=\=\=\=\=\=\=\=\=\=\=\=\=\=\=\=\=\=\=
    = \=\=\=\=\=\=\=\=\=\=\=\=\=\=\=\=\=\=\=\=\=\=\=\=\=\=\=\=\=\=\=\=\=\=\=\=\=\=\=\=\=\=\=\=\=\=\=\=\=\=\=\=\=\=\=\=\=\=\=\=\=\=\=\=\=\=\=\=\=\=\=\=
   ISYM = 0
   NSW = 800
   IBRION = 2
   POTIM = 0.5
   ISIF = 2
   EDIFFG = -.03
    = \=\=\=\=\=\=\=\=\=\=\=\=\=\=\=\=\=\=\=\=\=\=\=\=\=\=\=\=\=\=\=\=\=\=\=\=\=\=\=\=\=\=\=\=\=\=\=\=\=\=\=\=\=\=\=\=\=\=\=\=\=\=\=\=\=\=\=\=\=\=\=\=
    = \=\=\=\=\=\=\=\=\=\=\=\=\=\=\=\=\=\=\=\=\=\=\=\=\=\=\=\=\=\=\=\=\=\=\=\=\=\=\=\=\=\=\=\=\=\=\=\=\=\=\=\=\=\=\=\=\=\=\=\=\=\=\=\=\=\=\=\=\=\=\=\=
   NPAR = 4
   LWAVE = .FALSE.
   LCHARG = .FALSE.
   LORBIT = 11

 POTCAR:    PAW_PBE Ni 02Aug2007                  
 POTCAR:    PAW_PBE O 08Apr2002                   
 POTCAR:    PAW_PBE Fe 06Sep2000                  
 POTCAR:    PAW_PBE Ni 02Aug2007                  
   SHA256 =  0534bc51ca8003dfef23f56753fef9fdd3e22eac8d719fccacb59f3e6b7a69c7 Ni/POTCAR             
   COPYR  = (c) Copyright 02Aug2007 Georg Kresse                                                    
   COPYR  = This file is part of the software VASP. Any use, copying, and all other rights are regul
   COPYR  = If you do not have a valid VASP license, you may not use, copy or distribute this file. 
   VRHFIN =Ni:                                                                                      
   LEXCH  = PE                                                                                      
   EATOM  =  1077.6739 eV,   79.2068 Ry                                                             
                                                                                                    
   TITEL  = PAW_PBE Ni 02Aug2007                                                                    
   LULTRA =        F    use ultrasoft PP ?                                                          
   IUNSCR =        1    unscreen: 0-lin 1-nonlin 2-no                                               
   RPACOR =    2.000    partial core radius                                                         
   POMASS =   58.690; ZVAL   =   10.000    mass and valenz                                          
   RCORE  =    2.300    outmost cutoff radius                                                       
   RWIGS  =    2.430; RWIGS  =    1.286    wigner-seitz radius (au A)                               
   ENMAX  =  269.532; ENMIN  =  202.149 eV                                                          
   RCLOC  =    1.201    cutoff for local pot                                                        
   LCOR   =        T    correct aug charges                                                         
   LPAW   =        T    paw PP                                                                      
   EAUG   =  544.565                                                                                
   DEXC   =    0.000                                                                                
   RMAX   =    2.357    core radius for proj-oper                                                   
   RAUG   =    1.300    factor for augmentation sphere                                              
   RDEP   =    2.390    radius for radial grids                                                     
   RDEPT  =    1.838    core radius for aug-charge                                                  
                                                                                                    
   Atomic configuration                                                                             
    9 entries                                                                                       
     n  l   j            E        occ.                                                              
     1  0  0.50     -8206.4253   2.0000                                                             
     2  0  0.50      -976.1748   2.0000                                                             
     2  1  1.50      -839.0571   6.0000                                                             
     3  0  0.50      -105.9991   2.0000                                                             
     3  1  1.50       -66.4603   6.0000                                                             
     3  2  2.50        -4.6458   9.0000                                                             
     4  0  0.50        -4.4926   1.0000                                                             
     4  1  1.50        -4.0817   0.0000                                                             
     4  3  2.50        -1.3606   0.0000                                                             
   Description                                                                                      
     l       E           TYP  RCUT    TYP  RCUT                                                     
     2     -4.6457903     23  2.300                                                                 
     2     -6.0063729     23  2.300                                                                 
     0     -4.4925590     23  2.300                                                                 
     0      5.0102601     23  2.300                                                                 
     1     -2.7211652     23  2.300                                                                 
     1     16.5183231     23  2.300                                                                 
  local pseudopotential read in
  partial core-charges read in
  partial kinetic energy density read in
  atomic valenz-charges read in
  non local Contribution for L=           2  read in
    real space projection operators read in
  non local Contribution for L=           2  read in
    real space projection operators read in
  non local Contribution for L=           0  read in
    real space projection operators read in
  non local Contribution for L=           0  read in
    real space projection operators read in
  non local Contribution for L=           1  read in
    real space projection operators read in
  non local Contribution for L=           1  read in
    real space projection operators read in
    PAW grid and wavefunctions read in
 
   number of l-projection  operators is LMAX  =           6
   number of lm-projection operators is LMMAX =          18
 
 POTCAR:    PAW_PBE O 08Apr2002                   
   SHA256 =  818f92134a0a090dccd8ba1447fa70422a3b330e708bb4f08108d8ae51209ddf O/POTCAR              
   COPYR  = (c) Copyright 08Apr2002 Georg Kresse                                                    
   COPYR  = This file is part of the software VASP. Any use, copying, and all other rights are regul
   COPYR  = If you do not have a valid VASP license, you may not use, copy or distribute this file. 
   VRHFIN =O: s2p4                                                                                  
   LEXCH  = PE                                                                                      
   EATOM  =   432.3788 eV,   31.7789 Ry                                                             
                                                                                                    
   TITEL  = PAW_PBE O 08Apr2002                                                                     
   LULTRA =        F    use ultrasoft PP ?                                                          
   IUNSCR =        1    unscreen: 0-lin 1-nonlin 2-no                                               
   RPACOR =    1.200    partial core radius                                                         
   POMASS =   16.000; ZVAL   =    6.000    mass and valenz                                          
   RCORE  =    1.520    outmost cutoff radius                                                       
   RWIGS  =    1.550; RWIGS  =    0.820    wigner-seitz radius (au A)                               
   ENMAX  =  400.000; ENMIN  =  300.000 eV                                                          
   ICORE  =        2    local potential                                                             
   LCOR   =        T    correct aug charges                                                         
   LPAW   =        T    paw PP                                                                      
   EAUG   =  605.392                                                                                
   DEXC   =    0.000                                                                                
   RMAX   =    1.553    core radius for proj-oper                                                   
   RAUG   =    1.300    factor for augmentation sphere                                              
   RDEP   =    1.550    radius for radial grids                                                     
   RDEPT  =    1.329    core radius for aug-charge                                                  
                                                                                                    
   Atomic configuration                                                                             
    4 entries                                                                                       
     n  l   j            E        occ.                                                              
     1  0  0.50      -514.6923   2.0000                                                             
     2  0  0.50       -23.9615   2.0000                                                             
     2  1  0.50        -9.0305   4.0000                                                             
     3  2  1.50        -9.5241   0.0000                                                             
   Description                                                                                      
     l       E           TYP  RCUT    TYP  RCUT                                                     
     0    -23.9615318     23  1.200                                                                 
     0     -9.5240782     23  1.200                                                                 
     1     -9.0304911     23  1.520                                                                 
     1      8.1634956     23  1.520                                                                 
     2     -9.5240782      7  1.500                                                                 
  local pseudopotential read in
  partial core-charges read in
  partial kinetic energy density read in
  kinetic energy density of atom read in
  atomic valenz-charges read in
  non local Contribution for L=           0  read in
    real space projection operators read in
  non local Contribution for L=           0  read in
    real space projection operators read in
  non local Contribution for L=           1  read in
    real space projection operators read in
  non local Contribution for L=           1  read in
    real space projection operators read in
    PAW grid and wavefunctions read in
 
   number of l-projection  operators is LMAX  =           4
   number of lm-projection operators is LMMAX =           8
 
 POTCAR:    PAW_PBE Fe 06Sep2000                  
   SHA256 =  cd5a22d9368cc8b5cc476bea79732366149640da08ac9009b0e1b7fc627eea28 Fe/POTCAR             
   COPYR  = (c) Copyright 06Sep2000 Georg Kresse                                                    
   COPYR  = This file is part of the software VASP. Any use, copying, and all other rights are regul
   COPYR  = If you do not have a valid VASP license, you may not use, copy or distribute this file. 
   VRHFIN =Fe:  d7 s1                                                                               
   LEXCH  = PE                                                                                      
   EATOM  =   594.3153 eV,   43.6809 Ry                                                             
                                                                                                    
   TITEL  = PAW_PBE Fe 06Sep2000                                                                    
   LULTRA =        F    use ultrasoft PP ?                                                          
   IUNSCR =        1    unscreen: 0-lin 1-nonlin 2-no                                               
   RPACOR =    2.000    partial core radius                                                         
   POMASS =   55.847; ZVAL   =    8.000    mass and valenz                                          
   RCORE  =    2.300    outmost cutoff radius                                                       
   RWIGS  =    2.460; RWIGS  =    1.302    wigner-seitz radius (au A)                               
   ENMAX  =  267.882; ENMIN  =  200.911 eV                                                          
   RCLOC  =    1.701    cutoff for local pot                                                        
   LCOR   =        T    correct aug charges                                                         
   LPAW   =        T    paw PP                                                                      
   EAUG   =  511.368                                                                                
   DEXC   =    0.000                                                                                
   RMAX   =    2.356    core radius for proj-oper                                                   
   RAUG   =    1.300    factor for augmentation sphere                                              
   RDEP   =    2.442    radius for radial grids                                                     
   RDEPT  =    1.890    core radius for aug-charge                                                  
                                                                                                    
   Atomic configuration                                                                             
    9 entries                                                                                       
     n  l   j            E        occ.                                                              
     1  0  0.50     -6993.8440   2.0000                                                             
     2  0  0.50      -814.6047   2.0000                                                             
     2  1  1.50      -693.3689   6.0000                                                             
     3  0  0.50       -89.4732   2.0000                                                             
     3  1  1.50       -55.6373   6.0000                                                             
     3  2  2.50        -3.8151   7.0000                                                             
     4  0  0.50        -4.2551   1.0000                                                             
     4  1  1.50        -3.4015   0.0000                                                             
     4  3  2.50        -1.3606   0.0000                                                             
   Description                                                                                      
     l       E           TYP  RCUT    TYP  RCUT                                                     
     2     -3.8151135     23  2.300                                                                 
     2     -5.1756961     23  2.300                                                                 
     0     -4.2550963     23  2.300                                                                 
     0      7.2035603     23  2.300                                                                 
     1     -2.7211652     23  2.300                                                                 
     1     18.4316424     23  2.300                                                                 
  local pseudopotential read in
  partial core-charges read in
  partial kinetic energy density read in
  atomic valenz-charges read in
  non local Contribution for L=           2  read in
    real space projection operators read in
  non local Contribution for L=           2  read in
    real space projection operators read in
  non local Contribution for L=           0  read in
    real space projection operators read in
  non local Contribution for L=           0  read in
    real space projection operators read in
  non local Contribution for L=           1  read in
    real space projection operators read in
  non local Contribution for L=           1  read in
    real space projection operators read in
    PAW grid and wavefunctions read in
 
   number of l-projection  operators is LMAX  =           6
   number of lm-projection operators is LMMAX =          18
 
 Optimization of the real space projectors (new method)

 maximal supplied QI-value         = 16.25
 optimisation between [QCUT,QGAM] = [ 10.24, 20.48] = [ 29.35,117.42] Ry 
 Optimized for a Real-space Cutoff    1.34 Angstroem

   l    n(q)    QCUT    max X(q) W(low)/X(q) W(high)/X(q)  e(spline) 
   2      7    10.239    60.317    0.39E-03    0.10E-02    0.10E-06
   2      7    10.239    55.921    0.39E-03    0.10E-02    0.11E-06
   0      8    10.239    51.690    0.45E-03    0.17E-03    0.10E-06
   0      8    10.239    30.015    0.41E-03    0.16E-03    0.90E-07
   1      8    10.239    18.849    0.23E-03    0.62E-03    0.14E-06
   1      8    10.239    14.624    0.18E-03    0.51E-03    0.12E-06
 Optimization of the real space projectors (new method)

 maximal supplied QI-value         = 24.76
 optimisation between [QCUT,QGAM] = [ 10.15, 20.30] = [ 28.85,115.39] Ry 
 Optimized for a Real-space Cutoff    1.38 Angstroem

   l    n(q)    QCUT    max X(q) W(low)/X(q) W(high)/X(q)  e(spline) 
   0      8    10.150    20.381    0.22E-03    0.32E-03    0.29E-06
   0      8    10.150    15.268    0.23E-03    0.35E-03    0.30E-06
   1      8    10.150     5.964    0.46E-03    0.53E-03    0.21E-06
   1      8    10.150     5.382    0.38E-03    0.45E-03    0.19E-06
 Optimization of the real space projectors (new method)

 maximal supplied QI-value         = 16.25
 optimisation between [QCUT,QGAM] = [ 10.24, 20.48] = [ 29.35,117.42] Ry 
 Optimized for a Real-space Cutoff    1.51 Angstroem

   l    n(q)    QCUT    max X(q) W(low)/X(q) W(high)/X(q)  e(spline) 
   2      8    10.239    80.901    0.43E-03    0.67E-03    0.20E-06
   2      8    10.239    75.754    0.44E-03    0.68E-03    0.20E-06
   0      9    10.239    58.752    0.81E-04    0.41E-04    0.71E-07
   0      9    10.239    30.679    0.75E-04    0.39E-04    0.65E-07
   1      9    10.239    17.977    0.50E-04    0.16E-03    0.11E-06
   1      9    10.239    13.559    0.39E-04    0.13E-03    0.98E-07
  PAW_PBE Ni 02Aug2007                  :
 energy of atom  1       EATOM=-1077.6739
 kinetic energy error for atom=    0.0101 (will be added to EATOM!!)
  PAW_PBE O 08Apr2002                   :
 energy of atom  2       EATOM= -432.3788
 kinetic energy error for atom=    0.1156 (will be added to EATOM!!)
  PAW_PBE Fe 06Sep2000                  :
 energy of atom  3       EATOM= -594.3153
 kinetic energy error for atom=    0.0088 (will be added to EATOM!!)
 
 
 POSCAR: Ni  O
  positions in cartesian coordinates
  No initial velocities read in
 exchange correlation table for  LEXCH =        8
   RHO(1)=    0.500       N(1)  =     2000
   RHO(2)=  100.500       N(2)  =     4000

 VTST: version 4.2, (08/11/21)

 CHAIN: initializing optimizer
 
 OPT: Using VASP Conjugate-Gradient optimizer
 CHAIN: Read ICHAIN            0
 
 POSCAR: Ni  O
  positions in cartesian coordinates
  No initial velocities read in
 


--------------------------------------------------------------------------------------------------------


 ion  position               nearest neighbor table
   1  1.000  1.000  0.321-  42 2.06  35 2.06  27 2.07  26 2.07  29 2.08  24 2.92  22 2.92  61 2.92
                             2 2.92  13 2.92   3 2.92  60 2.92  10 2.92
   2  0.250  0.750  0.321-  35 2.06  34 2.06  26 2.07  51 2.07  40 2.08  22 2.92  64 2.92   1 2.92
                            15 2.92  57 2.92  14 2.92  10 2.92  11 2.92
   3  0.750  0.250  0.321-  43 2.06  42 2.06  50 2.07  27 2.07  48 2.08  23 2.92  24 2.92  57 2.92
                            15 2.92  14 2.92   1 2.92  12 2.92  60 2.92
   4  0.000  0.750  0.052-  36 2.06  25 2.06  33 2.07  52 2.07  39 2.08  20 2.92  19 2.92  18 2.92
                             6 2.92  58 2.92  17 2.92   8 2.92   9 2.92
   5  0.500  0.250  0.052-  44 2.06  49 2.06  41 2.07  28 2.07  47 2.08  63 2.92  21 2.92   6 2.92
                            17 2.92  18 2.92  58 2.92  59 2.92   7 2.92
   6  0.750  0.000  0.052-  25 2.06  44 2.06  52 2.07  41 2.07  46 2.08  19 2.92  63 2.92  16 2.92
                             4 2.92   5 2.92  62 2.92   9 2.92  59 2.92
   7  0.250  0.250  0.141-  47 2.06  38 2.06  30 2.07  31 2.07  28 2.10  32 2.11  16 2.92  17 2.92
                            59 2.92  21 2.92  19 2.92   8 2.92  58 2.92   5 2.92  60 2.96  10 2.96
   8  1.000  0.500  0.141-  39 2.06  38 2.06  31 2.07  54 2.07  33 2.10  37 2.11  18 2.92  16 2.92
                             9 2.92  63 2.92  20 2.92   7 2.92   4 2.92  58 2.92  12 2.96  60 2.96
   9  0.750  0.750  0.141-  39 2.06  46 2.06  54 2.07  55 2.07  52 2.10  56 2.11  62 2.92  18 2.92
                             8 2.92  19 2.92  21 2.92  59 2.92   6 2.92   4 2.92  11 2.96  12 2.96
  10  0.250  0.000  0.232-  29 2.06  40 2.06  32 2.07  45 2.07  26 2.10  30 2.11  15 2.92  13 2.92
                            23 2.92  60 2.92  11 2.92  22 2.92   2 2.92   1 2.92  59 2.96   7 2.96
  11  0.500  0.750  0.232-  53 2.06  40 2.06  45 2.07  56 2.07  51 2.10  55 2.11  61 2.92  15 2.92
                            12 2.92  64 2.92  10 2.92  24 2.92  57 2.92   2 2.92   9 2.96  59 2.96
  12  0.750  0.500  0.232-  48 2.06  53 2.06  56 2.07  37 2.07  50 2.10  54 2.11  14 2.92  61 2.92
                            60 2.92  22 2.92  11 2.92  23 2.92   3 2.92  57 2.92   8 2.96   9 2.96
  13  0.250  0.250  0.321-  27 2.06  26 2.06  34 2.07  43 2.07  32 2.08  60 2.92  10 2.92  15 2.92
                            14 2.92  57 2.92   1 2.92  64 2.92  23 2.92
  14  1.000  0.500  0.321-  50 2.06  27 2.06  35 2.07  34 2.07  37 2.08  12 2.92  60 2.92   3 2.92
                            13 2.92  61 2.92   2 2.92  22 2.92  64 2.92
  15  0.500  1.000  0.321-  26 2.06  51 2.06  43 2.07  42 2.07  45 2.08  10 2.92  11 2.92  13 2.92
                             2 2.92   3 2.92  61 2.92  23 2.92  24 2.92
  16  0.000  0.250  0.052-  28 2.06  33 2.06  25 2.07  44 2.07  31 2.08   7 2.92   8 2.92   6 2.92
                            18 2.92  58 2.92  17 2.92  19 2.92  63 2.92
  17  0.250  0.000  0.052-  41 2.06  28 2.06  36 2.07  25 2.07  30 2.08  59 2.92   7 2.92   5 2.92
                            62 2.92  16 2.92   4 2.92  20 2.92  19 2.92
  18  0.750  0.500  0.052-  33 2.06  52 2.06  44 2.07  49 2.07  54 2.08   8 2.92   9 2.92   4 2.92
                            16 2.92  62 2.92   5 2.92  63 2.92  21 2.92
  19  1.000  1.000  0.141-  30 2.06  31 2.06  39 2.07  46 2.07  25 2.10  29 2.11   6 2.92   4 2.92
                             9 2.92  63 2.92  20 2.92   7 2.92  16 2.92  17 2.92  24 2.96  22 2.96
  20  0.250  0.750  0.141-  55 2.06  30 2.06  38 2.07  39 2.07  36 2.10  40 2.11   4 2.92  58 2.92
                            21 2.92   8 2.92  59 2.92  19 2.92  17 2.92  62 2.92  22 2.96  64 2.96
  21  0.500  0.500  0.141-  54 2.06  55 2.06  38 2.07  47 2.07  49 2.10  53 2.11  58 2.92   5 2.92
                            20 2.92   9 2.92   7 2.92  63 2.92  62 2.92  18 2.92  64 2.96  23 2.96
  22  0.000  0.750  0.232-  56 2.06  37 2.06  29 2.07  40 2.07  35 2.10  39 2.11   2 2.92   1 2.92
                            12 2.92  64 2.92  24 2.92  10 2.92  14 2.92  61 2.92  20 2.96  19 2.96
  23  0.500  0.250  0.232-  32 2.06  45 2.06  48 2.07  53 2.07  43 2.10  47 2.11   3 2.92  57 2.92
                            24 2.92  10 2.92  12 2.92  64 2.92  15 2.92  13 2.92  63 2.96  21 2.96
  24  0.750  0.000  0.232-  45 2.06  56 2.06  48 2.07  29 2.07  42 2.10  46 2.11   1 2.92   3 2.92
                            23 2.92  60 2.92  22 2.92  11 2.92  61 2.92  15 2.92  19 2.96  63 2.96
  25  0.000  0.000  0.050-   6 2.06   4 2.06  16 2.07  17 2.07  19 2.10
  26  0.250  1.000  0.323-  15 2.06  13 2.06   2 2.07   1 2.07  10 2.10
  27  1.000  0.250  0.323-  13 2.06  14 2.06   1 2.07   3 2.07  60 2.10
  28  0.250  0.250  0.050-  16 2.06  17 2.06  58 2.07   5 2.07   7 2.10
  29  0.000  0.000  0.232-  10 2.06  60 2.06  22 2.07  24 2.07   1 2.08  19 2.11
  30  0.250  1.000  0.141-  19 2.06  20 2.06   7 2.07  59 2.07  17 2.08  10 2.11
  31  1.000  0.250  0.141-  63 2.06  19 2.06   8 2.07   7 2.07  16 2.08  60 2.11
  32  0.250  0.250  0.232-  23 2.06  64 2.06  10 2.07  60 2.07  13 2.08   7 2.11
  33  0.000  0.500  0.050-  18 2.06  16 2.06   4 2.07  58 2.07   8 2.10
  34  0.250  0.500  0.323-  57 2.06   2 2.06  13 2.07  14 2.07  64 2.10
  35  1.000  0.750  0.323-   2 2.06   1 2.06  14 2.07  61 2.07  22 2.10
  36  0.250  0.750  0.050-   4 2.06  58 2.06  17 2.07  62 2.07  20 2.10
  37  0.000  0.500  0.232-  64 2.06  22 2.06  60 2.07  12 2.07  14 2.08   8 2.11
  38  0.250  0.500  0.141-   7 2.06   8 2.06  20 2.07  21 2.07  58 2.08  64 2.11
  39  1.000  0.750  0.141-   9 2.06   8 2.06  19 2.07  20 2.07   4 2.08  22 2.11
  40  0.250  0.750  0.232-  11 2.06  10 2.06  64 2.07  22 2.07   2 2.08  20 2.11
  41  0.500  0.000  0.050-  17 2.06  62 2.06   5 2.07   6 2.07  59 2.10
  42  0.750  1.000  0.323-   1 2.06   3 2.06  61 2.07  15 2.07  24 2.10
  43  0.500  0.250  0.323-   3 2.06  57 2.06  15 2.07  13 2.07  23 2.10
  44  0.750  0.250  0.050-   5 2.06   6 2.06  18 2.07  16 2.07  63 2.10
  45  0.500  0.000  0.232-  24 2.06  23 2.06  11 2.07  10 2.07  15 2.08  59 2.11
  46  0.750  1.000  0.141-  59 2.06   9 2.06  63 2.07  19 2.07   6 2.08  24 2.11
  47  0.500  0.250  0.141-   7 2.06  59 2.06  21 2.07  63 2.07   5 2.08  23 2.11
  48  0.750  0.250  0.232-  60 2.06  12 2.06  24 2.07  23 2.07   3 2.08  63 2.11
  49  0.500  0.500  0.050-  58 2.06   5 2.06  62 2.07  18 2.07  21 2.10
  50  0.750  0.500  0.323-  14 2.06  61 2.06   3 2.07  57 2.07  12 2.10
  51  0.500  0.750  0.323-  61 2.06  15 2.06  57 2.07   2 2.07  11 2.10
  52  0.750  0.750  0.050-  62 2.06  18 2.06   6 2.07   4 2.07   9 2.10
  53  0.500  0.500  0.232-  11 2.06  12 2.06  23 2.07  64 2.07  57 2.08  21 2.11
  54  0.750  0.500  0.141-  21 2.06  63 2.06   9 2.07   8 2.07  18 2.08  12 2.11
  55  0.500  0.750  0.141-  20 2.06  21 2.06  59 2.07   9 2.07  62 2.08  11 2.11
  56  0.750  0.750  0.232-  22 2.06  24 2.06  11 2.07  12 2.07  61 2.08   9 2.11
  57  0.500  0.500  0.321-  34 2.06  43 2.06  51 2.07  50 2.07  53 2.08  64 2.92  23 2.92   3 2.92
                            13 2.92   2 2.92  61 2.92  11 2.92  12 2.92
  58  0.250  0.500  0.052-  49 2.06  36 2.06  28 2.07  33 2.07  38 2.08  21 2.92  20 2.92  16 2.92
                             4 2.92  62 2.92   5 2.92   7 2.92   8 2.92
  59  0.500  1.000  0.141-  46 2.06  47 2.06  55 2.07  30 2.07  41 2.10  45 2.11  17 2.92  62 2.92
                             7 2.92  20 2.92   9 2.92  63 2.92   5 2.92   6 2.92  10 2.96  11 2.96
  60  0.000  0.250  0.232-  48 2.06  29 2.06  37 2.07  32 2.07  27 2.10  31 2.11  13 2.92  14 2.92
                            64 2.92  12 2.92  24 2.92  10 2.92   1 2.92   3 2.92   7 2.96   8 2.96
  61  0.750  0.750  0.321-  51 2.06  50 2.06  42 2.07  35 2.07  56 2.08  11 2.92  12 2.92   1 2.92
                            15 2.92  57 2.92  14 2.92  24 2.92  22 2.92
  62  0.500  0.750  0.052-  52 2.06  41 2.06  49 2.07  36 2.07  55 2.08   9 2.92  59 2.92  18 2.92
                            17 2.92   6 2.92  58 2.92  21 2.92  20 2.92
  63  0.750  0.250  0.141-  31 2.06  54 2.06  46 2.07  47 2.07  44 2.10  48 2.11   5 2.92   6 2.92
                             8 2.92  19 2.92  21 2.92  59 2.92  18 2.92  16 2.92  23 2.96  24 2.96
  64  0.250  0.500  0.232-  37 2.06  32 2.06  40 2.07  53 2.07  34 2.10  38 2.11  57 2.92   2 2.92
                            60 2.92  11 2.92  23 2.92  22 2.92  13 2.92  14 2.92  21 2.96  20 2.96
 

IMPORTANT INFORMATION: All symmetrisations will be switched off!
NOSYMM: (Re-)initialisation of all symmetry stuff for point group C_1.


----------------------------------------------------------------------------------------

                                     Primitive cell                                     

  volume of cell :    1586.3291

  direct lattice vectors                    reciprocal lattice vectors
     8.258574486  0.000000000  0.000000000     0.121086272  0.000000000  0.000000000
     0.000000000  8.258574486  0.000000000     0.000000000  0.121086272  0.000000000
     0.000000000  0.000000000 23.258575439     0.000000000  0.000000000  0.042994895

  length of vectors
     8.258574486  8.258574486 23.258575439     0.121086272  0.121086272  0.042994895

  position of ions in fractional coordinates (direct lattice)
     0.999553800  0.999554098  0.320940107
     0.249553815  0.749554157  0.320940107
     0.749553800  0.249554142  0.320940107
     0.000261758  0.750261426  0.051898405
     0.500261784  0.250261426  0.051898405
     0.750261784  0.000261438  0.051898398
     0.249848098  0.249848127  0.140649199
     0.999848068  0.499848157  0.140649199
     0.749848127  0.749848127  0.140649199
     0.250226796  0.000226752  0.232115537
     0.500226796  0.750226736  0.232115537
     0.750226796  0.500226736  0.232115537
     0.249553800  0.249554127  0.320940107
     0.999553800  0.499554127  0.320940107
     0.499553800  0.999554157  0.320940107
     0.000261765  0.250261426  0.051898394
     0.250261784  0.000261433  0.051898401
     0.750261784  0.500261426  0.051898394
     0.999848068  0.999848127  0.140649185
     0.249848083  0.749848127  0.140649199
     0.499848098  0.499848157  0.140649185
     0.000226795  0.750226736  0.232115537
     0.500226796  0.250226736  0.232115537
     0.750226796  0.000226753  0.232115537
     0.000255936  0.000255791  0.050353639
     0.249728814  0.999728978  0.322508395
     0.999728799  0.249728993  0.322508395
     0.250255972  0.250255793  0.050353643
     0.000321450  0.000321369  0.231580749
     0.249803230  0.999803305  0.141275451
     0.999803185  0.249803290  0.141275451
     0.250321448  0.250321358  0.231580764
     0.000255916  0.500255823  0.050353631
     0.249728799  0.499729007  0.322508365
     0.999728799  0.749728978  0.322508395
     0.250255942  0.750255764  0.050353643
     0.000321468  0.500321388  0.231580764
     0.249803230  0.499803275  0.141275451
     0.999803185  0.749803305  0.141275451
     0.250321448  0.750321388  0.231580749
     0.500256002  0.000255794  0.050353616
     0.749728799  0.999728978  0.322508395
     0.499728799  0.249729022  0.322508365
     0.750255942  0.250255793  0.050353631
     0.500321448  0.000321369  0.231580764
     0.749803185  0.999803305  0.141275451
     0.499803215  0.249803290  0.141275451
     0.750321448  0.250321388  0.231580764
     0.500255942  0.500255764  0.050353635
     0.749728799  0.499729007  0.322508395
     0.499728829  0.749729037  0.322508395
     0.750255942  0.750255764  0.050353624
     0.500321448  0.500321388  0.231580749
     0.749803185  0.499803305  0.141275451
     0.499803215  0.749803305  0.141275465
     0.750321448  0.750321388  0.231580764
     0.499553800  0.499554127  0.320940107
     0.250261754  0.500261426  0.051898416
     0.499848098  0.999848127  0.140649185
     0.000226796  0.250226766  0.232115537
     0.749553800  0.749554157  0.320940107
     0.500261784  0.750261426  0.051898409
     0.749848127  0.249848157  0.140649185
     0.250226796  0.500226736  0.232115537

  ion indices of the primitive-cell ions
   primitive index   ion index
                 1           1
                 2           2
                 3           3
                 4           4
                 5           5
                 6           6
                 7           7
                 8           8
                 9           9
                10          10
                11          11
                12          12
                13          13
                14          14
                15          15
                16          16
                17          17
                18          18
                19          19
                20          20
                21          21
                22          22
                23          23
                24          24
                25          25
                26          26
                27          27
                28          28
                29          29
                30          30
                31          31
                32          32
                33          33
                34          34
                35          35
                36          36
                37          37
                38          38
                39          39
                40          40
                41          41
                42          42
                43          43
                44          44
                45          45
                46          46
                47          47
                48          48
                49          49
                50          50
                51          51
                52          52
                53          53
                54          54
                55          55
                56          56
                57          57
                58          58
                59          59
                60          60
                61          61
                62          62
                63          63
                64          64

----------------------------------------------------------------------------------------

 
 
 KPOINTS: Auto-mesh                               

Automatic generation of k-mesh.
 Grid dimensions read from file:
 generate k-points for:    3    3    1

 Generating k-lattice:

  Cartesian coordinates                     Fractional coordinates (reciprocal lattice)
     0.040362091  0.000000000  0.000000000     0.333333333  0.000000000  0.000000000
     0.000000000  0.040362091  0.000000000     0.000000000  0.333333333  0.000000000
     0.000000000  0.000000000  0.042994895     0.000000000  0.000000000  1.000000000

  Length of vectors
     0.040362091  0.040362091  0.042994895

  Shift w.r.t. Gamma in fractional coordinates (k-lattice)
     0.000000000  0.000000000  0.000000000

 
 Subroutine IBZKPT returns following result:
 ===========================================
 
 Found      5 irreducible k-points:
 
 Following reciprocal coordinates:
            Coordinates               Weight
  0.000000  0.000000  0.000000      1.000000
  0.333333  0.000000  0.000000      2.000000
  0.000000  0.333333  0.000000      2.000000
  0.333333  0.333333  0.000000      2.000000
 -0.333333  0.333333  0.000000      2.000000
 
 Following cartesian coordinates:
            Coordinates               Weight
  0.000000  0.000000  0.000000      1.000000
  0.040362  0.000000  0.000000      2.000000
  0.000000  0.040362  0.000000      2.000000
  0.040362  0.040362  0.000000      2.000000
 -0.040362  0.040362  0.000000      2.000000
 


--------------------------------------------------------------------------------------------------------




 Dimension of arrays:
   k-points           NKPTS =      5   k-points in BZ     NKDIM =      5   number of bands    NBANDS=    316
   number of dos      NEDOS =    301   number of ions     NIONS =     64
   non local maximal  LDIM  =      6   non local SUM 2l+1 LMDIM =     18
   total plane-waves  NPLWV = 192000
   max r-space proj   IRMAX =   1790   max aug-charges    IRDMAX=   4510
   dimension x,y,z NGX =    40 NGY =   40 NGZ =  120
   dimension x,y,z NGXF=    80 NGYF=   80 NGZF=  240
   support grid    NGXF=    80 NGYF=   80 NGZF=  240
   ions per type =              24  32   8
   NGX,Y,Z   is equivalent  to a cutoff of   8.05,  8.05,  8.58 a.u.
   NGXF,Y,Z  is equivalent  to a cutoff of  16.10, 16.10, 17.15 a.u.

 SYSTEM =  unknown system                          
 POSCAR =  Ni  O                                   

 Startparameter for this run:
   NWRITE =      2    write-flag & timer
   PREC   = n         normal or accurate (medium, high low for compatibility)
   ISTART =      0    job   : 0-new  1-cont  2-samecut
   ICHARG =      2    charge: 1-file 2-atom 10-const
   ISPIN  =      2    spin polarized calculation?
   LNONCOLLINEAR =      F non collinear calculations
   LSORBIT =      F    spin-orbit coupling
   INIWAV =      1    electr: 0-lowe 1-rand  2-diag
   LASPH  =      T    aspherical Exc in radial PAW
 Electronic Relaxation 1
   ENCUT  =  400.0 eV  29.40 Ry    5.42 a.u.  13.47 13.47 37.93*2*pi/ulx,y,z
   ENINI  =  400.0     initial cutoff
   ENAUG  =  605.4 eV  augmentation charge cutoff
   NELM   =     60;   NELMIN=  2; NELMDL= -5     # of ELM steps 
   EDIFF  = 0.1E-04   stopping-criterion for ELM
   LREAL  =      T    real-space projection
   NLSPLINE    = F    spline interpolate recip. space projectors
   LCOMPAT=      F    compatible to vasp.4.4
   GGA_COMPAT  = T    GGA compatible to vasp.4.4-vasp.4.6
   LMAXPAW     = -100 max onsite density
   LMAXMIX     =    4 max onsite mixed and CHGCAR
   VOSKOWN=      0    Vosko Wilk Nusair interpolation
   ROPT   =   -0.00050  -0.00050  -0.00050
 Ionic relaxation
   EDIFFG = -.3E-01   stopping-criterion for IOM
   NSW    =    800    number of steps for IOM
   NBLOCK =      1;   KBLOCK =    800    inner block; outer block 
   IBRION =      2    ionic relax: 0-MD 1-quasi-New 2-CG
   NFREE  =      1    steps in history (QN), initial steepest desc. (CG)
   ISIF   =      2    stress and relaxation
   IWAVPR =     11    prediction:  0-non 1-charg 2-wave 3-comb
   ISYM   =      0    0-nonsym 1-usesym 2-fastsym
   LCORR  =      T    Harris-Foulkes like correction to forces

   POTIM  = 0.5000    time-step for ionic-motion
   TEIN   =    0.0    initial temperature
   TEBEG  =    0.0;   TEEND  =   0.0 temperature during run
   SMASS  =  -3.00    Nose mass-parameter (am)
   estimated Nose-frequenzy (Omega)   =  0.10E-29 period in steps = 0.13E+47 mass=  -0.156E-26a.u.
   SCALEE = 1.0000    scale energy and forces
   NPACO  =    256;   APACO  = 10.0  distance and # of slots for P.C.
   PSTRESS=    0.0 pullay stress

  Mass of Ions in am
   POMASS =  58.69 16.00 55.85
  Ionic Valenz
   ZVAL   =  10.00  6.00  8.00
  Atomic Wigner-Seitz radii
   RWIGS  =  -1.00 -1.00 -1.00
  virtual crystal weights 
   VCA    =   1.00  1.00  1.00
   NELECT =     496.0000    total number of electrons
   NUPDOWN=      32.0000    fix difference up-down

 DOS related values:
   EMIN   =  10.00;   EMAX   =-10.00  energy-range for DOS
   EFERMI =   0.00
   ISMEAR =     0;   SIGMA  =   0.05  broadening in eV -4-tet -1-fermi 0-gaus

 Electronic relaxation 2 (details)
   IALGO  =     68    algorithm
   LDIAG  =      T    sub-space diagonalisation (order eigenvalues)
   LSUBROT=      F    optimize rotation matrix (better conditioning)
   TURBO    =      0    0=normal 1=particle mesh
   IRESTART =      0    0=no restart 2=restart with 2 vectors
   NREBOOT  =      0    no. of reboots
   NMIN     =      0    reboot dimension
   EREF     =   0.00    reference energy to select bands
   IMIX   =      4    mixing-type and parameters
     AMIX     =   0.40;   BMIX     =  1.00
     AMIX_MAG =   1.60;   BMIX_MAG =  1.00
     AMIN     =   0.10
     WC   =   100.;   INIMIX=   1;  MIXPRE=   1;  MAXMIX= -45

 Intra band minimization:
   WEIMIN = 0.0010     energy-eigenvalue tresh-hold
   EBREAK =  0.79E-08  absolut break condition
   DEPER  =   0.30     relativ break condition  

   TIME   =   0.40     timestep for ELM

  volume/ion in A,a.u.               =      24.79       167.27
  Fermi-wavevector in a.u.,A,eV,Ry     =   1.111146  2.099761 16.798358  1.234644
  Thomas-Fermi vector in A             =   2.247705
 
 Write flags
   LWAVE        =      F    write WAVECAR
   LDOWNSAMPLE  =      F    k-point downsampling of WAVECAR
   LCHARG       =      F    write CHGCAR
   LVTOT        =      F    write LOCPOT, total local potential
   LVHAR        =      F    write LOCPOT, Hartree potential only
   LELF         =      F    write electronic localiz. function (ELF)
   LORBIT       =     11    0 simple, 1 ext, 2 COOP (PROOUT), +10 PAW based schemes


 Dipole corrections
   LMONO  =      F    monopole corrections only (constant potential shift)
   LDIPOL =      F    correct potential (dipole corrections)
   IDIPOL =      3    1-x, 2-y, 3-z, 4-all directions 
   EPSILON=  1.0000000 bulk dielectric constant

 LDA+U is selected, type is set to LDAUTYPE =  2
   angular momentum for each species LDAUL =     2   -1    2
   U (eV)           for each species LDAUU =   5.3  0.0  4.0
   J (eV)           for each species LDAUJ =   0.0  0.0  0.0
 Exchange correlation treatment:
   GGA     =    PE    GGA type
   LEXCH   =     8    internal setting for exchange type
   LIBXC   =     F    Libxc                    
   VOSKOWN =     0    Vosko Wilk Nusair interpolation
   LHFCALC =     F    Hartree Fock is set to
   LHFONE  =     F    Hartree Fock one center treatment
   AEXX    =    0.0000 exact exchange contribution

 Linear response parameters
   LEPSILON=     F    determine dielectric tensor
   LRPA    =     F    only Hartree local field effects (RPA)
   LNABLA  =     F    use nabla operator in PAW spheres
   LVEL    =     F    velocity operator in full k-point grid
   CSHIFT  =0.1000    complex shift for real part using Kramers Kronig
   OMEGAMAX=  -1.0    maximum frequency
   DEG_THRESHOLD= 0.2000000E-02 threshold for treating states as degnerate
   RTIME   =   -0.100 relaxation time in fs
  (WPLASMAI=    0.000 imaginary part of plasma frequency in eV, 0.658/RTIME)
   DFIELD  = 0.0000000 0.0000000 0.0000000 field for delta impulse in time
 
  Optional k-point grid parameters
   LKPOINTS_OPT  =     F    use optional k-point grid
   KPOINTS_OPT_MODE=     1    mode for optional k-point grid
 
 Orbital magnetization related:
   ORBITALMAG=     F  switch on orbital magnetization
   LCHIMAG   =     F  perturbation theory with respect to B field
   DQ        =  0.001000  dq finite difference perturbation B field
   LLRAUG    =     F  two centre corrections for induced B field



--------------------------------------------------------------------------------------------------------


 conjugate gradient relaxation of ions
 charge density and potential will be updated during run
 spin polarized calculation
 RMM-DIIS sequential band-by-band and
  variant of blocked Davidson during initial phase
 perform sub-space diagonalisation
    before iterative eigenvector-optimisation
 modified Broyden-mixing scheme, WC =      100.0
 initial mixing is a Kerker type mixing with AMIX =  0.4000 and BMIX =      1.0000
 Hartree-type preconditioning will be used
 using additional bands           68
 real space projection scheme for non local part
 use partial core corrections
 calculate Harris-corrections to forces 
   (improved forces if not selfconsistent)
 use gradient corrections 
 use of overlap-Matrix (Vanderbilt PP)
 Gauss-broadening in eV      SIGMA  =   0.05


--------------------------------------------------------------------------------------------------------


  energy-cutoff  :      400.00
  volume of cell :     1586.33
      direct lattice vectors                 reciprocal lattice vectors
     8.258574486  0.000000000  0.000000000     0.121086272  0.000000000  0.000000000
     0.000000000  8.258574486  0.000000000     0.000000000  0.121086272  0.000000000
     0.000000000  0.000000000 23.258575439     0.000000000  0.000000000  0.042994895

  length of vectors
     8.258574486  8.258574486 23.258575439     0.121086272  0.121086272  0.042994895


 
 k-points in units of 2pi/SCALE and weight: Auto-mesh                               
   0.00000000  0.00000000  0.00000000       0.111
   0.04036209  0.00000000  0.00000000       0.222
   0.00000000  0.04036209  0.00000000       0.222
   0.04036209  0.04036209  0.00000000       0.222
  -0.04036209  0.04036209  0.00000000       0.222
 
 k-points in reciprocal lattice and weights: Auto-mesh                               
   0.00000000  0.00000000  0.00000000       0.111
   0.33333333  0.00000000  0.00000000       0.222
   0.00000000  0.33333333  0.00000000       0.222
   0.33333333  0.33333333  0.00000000       0.222
  -0.33333333  0.33333333  0.00000000       0.222
 
 position of ions in fractional coordinates (direct lattice) 
   0.99955380  0.99955410  0.32094011
   0.24955381  0.74955416  0.32094011
   0.74955380  0.24955414  0.32094011
   0.00026176  0.75026143  0.05189840
   0.50026178  0.25026143  0.05189840
   0.75026178  0.00026144  0.05189840
   0.24984810  0.24984813  0.14064920
   0.99984807  0.49984816  0.14064920
   0.74984813  0.74984813  0.14064920
   0.25022680  0.00022675  0.23211554
   0.50022680  0.75022674  0.23211554
   0.75022680  0.50022674  0.23211554
   0.24955380  0.24955413  0.32094011
   0.99955380  0.49955413  0.32094011
   0.49955380  0.99955416  0.32094011
   0.00026177  0.25026143  0.05189839
   0.25026178  0.00026143  0.05189840
   0.75026178  0.50026143  0.05189839
   0.99984807  0.99984813  0.14064918
   0.24984808  0.74984813  0.14064920
   0.49984810  0.49984816  0.14064918
   0.00022679  0.75022674  0.23211554
   0.50022680  0.25022674  0.23211554
   0.75022680  0.00022675  0.23211554
   0.00025594  0.00025579  0.05035364
   0.24972881  0.99972898  0.32250839
   0.99972880  0.24972899  0.32250839
   0.25025597  0.25025579  0.05035364
   0.00032145  0.00032137  0.23158075
   0.24980323  0.99980330  0.14127545
   0.99980319  0.24980329  0.14127545
   0.25032145  0.25032136  0.23158076
   0.00025592  0.50025582  0.05035363
   0.24972880  0.49972901  0.32250836
   0.99972880  0.74972898  0.32250839
   0.25025594  0.75025576  0.05035364
   0.00032147  0.50032139  0.23158076
   0.24980323  0.49980327  0.14127545
   0.99980319  0.74980330  0.14127545
   0.25032145  0.75032139  0.23158075
   0.50025600  0.00025579  0.05035362
   0.74972880  0.99972898  0.32250839
   0.49972880  0.24972902  0.32250836
   0.75025594  0.25025579  0.05035363
   0.50032145  0.00032137  0.23158076
   0.74980319  0.99980330  0.14127545
   0.49980322  0.24980329  0.14127545
   0.75032145  0.25032139  0.23158076
   0.50025594  0.50025576  0.05035364
   0.74972880  0.49972901  0.32250839
   0.49972883  0.74972904  0.32250839
   0.75025594  0.75025576  0.05035362
   0.50032145  0.50032139  0.23158075
   0.74980319  0.49980330  0.14127545
   0.49980322  0.74980330  0.14127547
   0.75032145  0.75032139  0.23158076
   0.49955380  0.49955413  0.32094011
   0.25026175  0.50026143  0.05189842
   0.49984810  0.99984813  0.14064918
   0.00022680  0.25022677  0.23211554
   0.74955380  0.74955416  0.32094011
   0.50026178  0.75026143  0.05189841
   0.74984813  0.24984816  0.14064918
   0.25022680  0.50022674  0.23211554
 
 position of ions in cartesian coordinates  (Angst):
   8.25488951  8.25489197  7.46460969
   2.06095877  6.19024884  7.46460969
   6.19024588  2.06096147  7.46460969
   0.00216174  6.19608987  1.20708297
   4.13144920  2.06680263  1.20708297
   6.19609282  0.00215911  1.20708279
   2.06338912  2.06338937  3.27130002
   8.25731974  4.12803324  3.27130002
   6.19267661  6.19267661  3.27130002
   2.06651663  0.00187265  5.39867673
   4.13116025  6.19580338  5.39867673
   6.19580387  4.13115976  5.39867673
   2.06095864  2.06096135  7.46460969
   8.25488951  4.12560497  7.46460969
   4.12560226  8.25489246  7.46460969
   0.00216181  2.06680263  1.20708271
   2.06680558  0.00215906  1.20708288
   6.19609282  4.13144625  1.20708271
   8.25731974  8.25732023  3.27129967
   2.06338900  6.19267661  3.27130002
   4.12803275  4.12803324  3.27129967
   0.00187300  6.19580338  5.39867673
   4.13116025  2.06651614  5.39867673
   6.19580387  0.00187265  5.39867673
   0.00211366  0.00211247  1.17115391
   2.06240401  8.25633623  7.50108583
   8.25633475  2.06240549  7.50108583
   2.06675759  2.06675611  1.17115399
   0.00265472  0.00265405  5.38623833
   2.06301858  8.25695006  3.28586572
   8.25694908  2.06301908  3.28586572
   2.06729832  2.06729758  5.38623867
   0.00211350  4.13139998  1.17115373
   2.06240389  4.12704923  7.50108513
   8.25633475  6.19169261  7.50108583
   2.06675734  6.19604311  1.17115399
   0.00265487  4.13194145  5.38623867
   2.06301858  4.12766257  3.28586572
   8.25694908  6.19230644  3.28586572
   2.06729832  6.19658507  5.38623833
   4.13140145  0.00211249  1.17115339
   6.19169113  8.25633623  7.50108583
   4.12704751  2.06240573  7.50108513
   6.19604458  2.06675611  1.17115373
   4.13194194  0.00265405  5.38623867
   6.19230546  8.25695006  3.28586572
   4.12766208  2.06301908  3.28586572
   6.19658556  2.06729783  5.38623867
   4.13140096  4.13139948  1.17115382
   6.19169113  4.12704923  7.50108583
   4.12704775  6.19169310  7.50108583
   6.19604458  6.19604311  1.17115356
   4.13194194  4.13194145  5.38623833
   6.19230546  4.12766282  3.28586572
   4.12766208  6.19230644  3.28586607
   6.19658556  6.19658507  5.38623867
   4.12560226  4.12560497  7.46460969
   2.06680534  4.13144625  1.20708323
   4.12803275  8.25732023  3.27129967
   0.00187301  2.06651638  5.39867673
   6.19024588  6.19024884  7.46460969
   4.13144920  6.19608987  1.20708305
   6.19267661  2.06338962  3.27129967
   2.06651663  4.13115976  5.39867673
 


--------------------------------------------------------------------------------------------------------


 k-point   1 :   0.0000 0.0000 0.0000  plane waves:   28835
 k-point   2 :   0.3333 0.0000 0.0000  plane waves:   28837
 k-point   3 :   0.0000 0.3333 0.0000  plane waves:   28837
 k-point   4 :   0.3333 0.3333 0.0000  plane waves:   28797
 k-point   5 :  -0.3333 0.3333 0.0000  plane waves:   28797

 maximum and minimum number of plane-waves per node :      5800     5743

 maximum number of plane-waves:     28837
 maximum index in each direction: 
   IXMAX=   13   IYMAX=   13   IZMAX=   37
   IXMIN=  -13   IYMIN=  -13   IZMIN=  -37


 real space projection operators:
  total allocation   :       8541.91 KBytes
  max/ min on nodes  :       1793.22       1643.78


 parallel 3D FFT for wavefunctions:
    minimum data exchange during FFTs selected (reduces bandwidth)
 parallel 3D FFT for charge:
    minimum data exchange during FFTs selected (reduces bandwidth)


 total amount of memory used by VASP MPI-rank0   123327. kBytes
=======================================================================

   base      :      30000. kBytes
   nonlr-proj:       4127. kBytes
   fftplans  :       3778. kBytes
   grid      :       9886. kBytes
   one-center:        404. kBytes
   wavefun   :      75132. kBytes
 
     INWAV:  cpu time      0.0000: real time      0.0003
 Broyden mixing: mesh for mixing (old mesh)
   NGX = 27   NGY = 27   NGZ = 75
  (NGX  = 80   NGY  = 80   NGZ  =240)
  gives a total of  54675 points

 initial charge density was supplied:
 charge density of overlapping atoms calculated
 number of electron     496.0000000 magnetization      32.0000000
 keeping initial charge density in first step


--------------------------------------------------------------------------------------------------------


 Maximum index for non-local projection operator          368
 Maximum index for augmentation-charges          321 (set IRDMAX)


--------------------------------------------------------------------------------------------------------


 First call to EWALD:  gamma=   0.152
 Maximum number of real-space cells 4x 4x 2
 Maximum number of reciprocal cells 2x 2x 5

    FEWALD:  cpu time      0.0040: real time      0.0040


--------------------------------------- Iteration      1(   1)  ---------------------------------------


    POTLOK:  cpu time      0.0992: real time      0.0994
    SETDIJ:  cpu time      1.6933: real time      1.6936
     EDDAV:  cpu time     14.0324: real time     14.0358
       DOS:  cpu time      0.0026: real time      0.0026
    --------------------------------------------
      LOOP:  cpu time     15.8276: real time     15.8315

 eigenvalue-minimisations  :  6320
 total energy-change (2. order) : 0.5135234E+04  (-0.1903989E+05)
 number of electron     496.0000000 magnetization      32.0000000
 augmentation part      496.0000000 magnetization      32.0000000

 Free energy of the ion-electron system (eV)
  ---------------------------------------------------
  alpha Z        PSCENC =       830.52252633
  Ewald energy   TEWEN  =    228511.24919633
  -Hartree energ DENC   =   -271147.49212007
  -exchange      EXHF   =         0.00000000
  -V(xc)+E(xc)   XCENC  =      1687.77224890
  PAW double counting   =     38612.59811270   -39779.25867021
  entropy T*S    EENTRO =        -0.02157410
  eigenvalues    EBANDS =      1969.05798782
  atomic energy  EATOM  =     44450.80657341
  Solvation  Ediel_sol  =         0.00000000
  ---------------------------------------------------
  free energy    TOTEN  =      5135.23428111 eV

  energy without entropy =     5135.25585521  energy(sigma->0) =     5135.24506816


--------------------------------------------------------------------------------------------------------




--------------------------------------- Iteration      1(   2)  ---------------------------------------


     EDDAV:  cpu time     14.6048: real time     14.6104
       DOS:  cpu time      0.0025: real time      0.0025
    --------------------------------------------
      LOOP:  cpu time     14.6073: real time     14.6129

 eigenvalue-minimisations  :  6680
 total energy-change (2. order) :-0.4266126E+04  (-0.3900921E+04)
 number of electron     496.0000000 magnetization      32.0000000
 augmentation part      496.0000000 magnetization      32.0000000

 Free energy of the ion-electron system (eV)
  ---------------------------------------------------
  alpha Z        PSCENC =       830.52252633
  Ewald energy   TEWEN  =    228511.24919633
  -Hartree energ DENC   =   -271147.49212007
  -exchange      EXHF   =         0.00000000
  -V(xc)+E(xc)   XCENC  =      1687.77224890
  PAW double counting   =     38612.59811270   -39779.25867021
  entropy T*S    EENTRO =        -0.03498019
  eigenvalues    EBANDS =     -2297.05443005
  atomic energy  EATOM  =     44450.80657341
  Solvation  Ediel_sol  =         0.00000000
  ---------------------------------------------------
  free energy    TOTEN  =       869.10845715 eV

  energy without entropy =      869.14343734  energy(sigma->0) =      869.12594725


--------------------------------------------------------------------------------------------------------




--------------------------------------- Iteration      1(   3)  ---------------------------------------


     EDDAV:  cpu time     16.8550: real time     16.8623
       DOS:  cpu time      0.0028: real time      0.0028
    --------------------------------------------
      LOOP:  cpu time     16.8578: real time     16.8651

 eigenvalue-minimisations  :  7996
 total energy-change (2. order) :-0.1124926E+04  (-0.1055118E+04)
 number of electron     496.0000000 magnetization      32.0000000
 augmentation part      496.0000000 magnetization      32.0000000

 Free energy of the ion-electron system (eV)
  ---------------------------------------------------
  alpha Z        PSCENC =       830.52252633
  Ewald energy   TEWEN  =    228511.24919633
  -Hartree energ DENC   =   -271147.49212007
  -exchange      EXHF   =         0.00000000
  -V(xc)+E(xc)   XCENC  =      1687.77224890
  PAW double counting   =     38612.59811270   -39779.25867021
  entropy T*S    EENTRO =        -0.05012514
  eigenvalues    EBANDS =     -3421.96537299
  atomic energy  EATOM  =     44450.80657341
  Solvation  Ediel_sol  =         0.00000000
  ---------------------------------------------------
  free energy    TOTEN  =      -255.81763073 eV

  energy without entropy =     -255.76750560  energy(sigma->0) =     -255.79256816


--------------------------------------------------------------------------------------------------------




--------------------------------------- Iteration      1(   4)  ---------------------------------------


     EDDAV:  cpu time     15.4249: real time     15.4313
       DOS:  cpu time      0.0027: real time      0.0027
    --------------------------------------------
      LOOP:  cpu time     15.4276: real time     15.4340

 eigenvalue-minimisations  :  7160
 total energy-change (2. order) :-0.1191539E+03  (-0.1153789E+03)
 number of electron     496.0000000 magnetization      32.0000000
 augmentation part      496.0000000 magnetization      32.0000000

 Free energy of the ion-electron system (eV)
  ---------------------------------------------------
  alpha Z        PSCENC =       830.52252633
  Ewald energy   TEWEN  =    228511.24919633
  -Hartree energ DENC   =   -271147.49212007
  -exchange      EXHF   =         0.00000000
  -V(xc)+E(xc)   XCENC  =      1687.77224890
  PAW double counting   =     38612.59811270   -39779.25867021
  entropy T*S    EENTRO =        -0.07105980
  eigenvalues    EBANDS =     -3541.09831699
  atomic energy  EATOM  =     44450.80657341
  Solvation  Ediel_sol  =         0.00000000
  ---------------------------------------------------
  free energy    TOTEN  =      -374.97150940 eV

  energy without entropy =     -374.90044960  energy(sigma->0) =     -374.93597950


--------------------------------------------------------------------------------------------------------




--------------------------------------- Iteration      1(   5)  ---------------------------------------


     EDDAV:  cpu time     16.8523: real time     16.8603
       DOS:  cpu time      0.0029: real time      0.0029
    CHARGE:  cpu time      0.4219: real time      0.4221
    MIXING:  cpu time      0.0031: real time      0.0031
    --------------------------------------------
      LOOP:  cpu time     17.2803: real time     17.2885

 eigenvalue-minimisations  :  8024
 total energy-change (2. order) :-0.5048953E+01  (-0.5013924E+01)
 number of electron     495.9999718 magnetization      31.9999940
 augmentation part      197.3377365 magnetization      21.0828161

 Broyden mixing:
  rms(total) = 0.95010E+01    rms(broyden)= 0.94809E+01
  rms(prec ) = 0.97801E+01
  weight for this iteration     100.00

 Free energy of the ion-electron system (eV)
  ---------------------------------------------------
  alpha Z        PSCENC =       830.52252633
  Ewald energy   TEWEN  =    228511.24919633
  -Hartree energ DENC   =   -271147.49212007
  -exchange      EXHF   =         0.00000000
  -V(xc)+E(xc)   XCENC  =      1687.77224890
  PAW double counting   =     38612.59811270   -39779.25867021
  entropy T*S    EENTRO =        -0.07223234
  eigenvalues    EBANDS =     -3546.14609739
  atomic energy  EATOM  =     44450.80657341
  Solvation  Ediel_sol  =         0.00000000
  ---------------------------------------------------
  free energy    TOTEN  =      -380.02046234 eV

  energy without entropy =     -379.94823000  energy(sigma->0) =     -379.98434617


--------------------------------------------------------------------------------------------------------




--------------------------------------- Iteration      1(   6)  ---------------------------------------


    POTLOK:  cpu time      0.0962: real time      0.0977
    SETDIJ:  cpu time      1.7105: real time      1.7108
    EDDIAG:  cpu time      2.0849: real time      2.0853
  RMM-DIIS:  cpu time      5.9239: real time      5.9255
    ORTHCH:  cpu time      0.6163: real time      0.6163
       DOS:  cpu time      0.0020: real time      0.0020
    CHARGE:  cpu time      0.4170: real time      0.4172
    MIXING:  cpu time      0.0031: real time      0.0031
    --------------------------------------------
      LOOP:  cpu time     10.8540: real time     10.8580

 eigenvalue-minimisations  :  6479
 total energy-change (2. order) : 0.4093609E+02  (-0.6709758E+02)
 number of electron     495.9999596 magnetization      31.9999931
 augmentation part      210.0795533 magnetization      22.1062078

 Broyden mixing:
  rms(total) = 0.15806E+02    rms(broyden)= 0.15803E+02
  rms(prec ) = 0.15967E+02
  weight for this iteration     100.00

 eigenvalues of (default mixing * dielectric matrix)
  average eigenvalue GAMMA=   0.1648
  0.1648

 Free energy of the ion-electron system (eV)
  ---------------------------------------------------
  alpha Z        PSCENC =       830.52252633
  Ewald energy   TEWEN  =    228511.24919633
  -Hartree energ DENC   =   -271235.34647607
  -exchange      EXHF   =         0.00000000
  -V(xc)+E(xc)   XCENC  =      1729.83655948
  PAW double counting   =     42025.79427226   -43026.90270571
  entropy T*S    EENTRO =        -0.04385731
  eigenvalues    EBANDS =     -3625.00046542
  atomic energy  EATOM  =     44450.80657341
  Solvation  Ediel_sol  =         0.00000000
  ---------------------------------------------------
  free energy    TOTEN  =      -339.08437670 eV

  energy without entropy =     -339.04051939  energy(sigma->0) =     -339.06244804


--------------------------------------------------------------------------------------------------------




--------------------------------------- Iteration      1(   7)  ---------------------------------------


    POTLOK:  cpu time      0.0982: real time      0.1000
    SETDIJ:  cpu time      1.7115: real time      1.7118
    EDDIAG:  cpu time      2.0877: real time      2.0882
  RMM-DIIS:  cpu time      6.3648: real time      6.3663
    ORTHCH:  cpu time      0.6164: real time      0.6166
       DOS:  cpu time      0.0020: real time      0.0020
    CHARGE:  cpu time      0.4120: real time      0.4121
    MIXING:  cpu time      0.0032: real time      0.0032
    --------------------------------------------
      LOOP:  cpu time     11.2959: real time     11.3002

 eigenvalue-minimisations  :  6986
 total energy-change (2. order) : 0.3115507E+00  (-0.1250861E+02)
 number of electron     495.9999719 magnetization      31.9999899
 augmentation part      205.9562947 magnetization      22.6391543

 Broyden mixing:
  rms(total) = 0.88841E+01    rms(broyden)= 0.88816E+01
  rms(prec ) = 0.89683E+01
  weight for this iteration     100.00

 eigenvalues of (default mixing * dielectric matrix)
  average eigenvalue GAMMA=   0.3778
  0.3778  0.3778

 Free energy of the ion-electron system (eV)
  ---------------------------------------------------
  alpha Z        PSCENC =       830.52252633
  Ewald energy   TEWEN  =    228511.24919633
  -Hartree energ DENC   =   -271258.04266168
  -exchange      EXHF   =         0.00000000
  -V(xc)+E(xc)   XCENC  =      1719.74862591
  PAW double counting   =     42668.49189402   -43709.53421153
  entropy T*S    EENTRO =        -0.02373867
  eigenvalues    EBANDS =     -3551.99103017
  atomic energy  EATOM  =     44450.80657341
  Solvation  Ediel_sol  =         0.00000000
  ---------------------------------------------------
  free energy    TOTEN  =      -338.77282605 eV

  energy without entropy =     -338.74908738  energy(sigma->0) =     -338.76095671


--------------------------------------------------------------------------------------------------------




--------------------------------------- Iteration      1(   8)  ---------------------------------------


    POTLOK:  cpu time      0.0985: real time      0.1020
    SETDIJ:  cpu time      1.7109: real time      1.7112
    EDDIAG:  cpu time      2.0861: real time      2.0866
  RMM-DIIS:  cpu time      5.9044: real time      5.9058
    ORTHCH:  cpu time      0.6168: real time      0.6170
       DOS:  cpu time      0.0026: real time      0.0026
    CHARGE:  cpu time      0.4175: real time      0.4175
    MIXING:  cpu time      0.0034: real time      0.0034
    --------------------------------------------
      LOOP:  cpu time     10.8402: real time     10.8462

 eigenvalue-minimisations  :  6455
 total energy-change (2. order) :-0.5678022E+02  (-0.5474029E+01)
 number of electron     495.9999694 magnetization      31.9999885
 augmentation part      205.7596946 magnetization      21.9174541

 Broyden mixing:
  rms(total) = 0.14698E+02    rms(broyden)= 0.14693E+02
  rms(prec ) = 0.15663E+02
  weight for this iteration     100.00

 eigenvalues of (default mixing * dielectric matrix)
  average eigenvalue GAMMA=   0.3695
  0.4644  0.4644  0.1797

 Free energy of the ion-electron system (eV)
  ---------------------------------------------------
  alpha Z        PSCENC =       830.52252633
  Ewald energy   TEWEN  =    228511.24919633
  -Hartree energ DENC   =   -271330.10687074
  -exchange      EXHF   =         0.00000000
  -V(xc)+E(xc)   XCENC  =      1719.11249607
  PAW double counting   =     44204.52670127   -45301.37688585
  entropy T*S    EENTRO =        -0.07964164
  eigenvalues    EBANDS =     -3480.20714568
  atomic energy  EATOM  =     44450.80657341
  Solvation  Ediel_sol  =         0.00000000
  ---------------------------------------------------
  free energy    TOTEN  =      -395.55305050 eV

  energy without entropy =     -395.47340886  energy(sigma->0) =     -395.51322968


--------------------------------------------------------------------------------------------------------




--------------------------------------- Iteration      1(   9)  ---------------------------------------


    POTLOK:  cpu time      0.0985: real time      0.1001
    SETDIJ:  cpu time      1.7125: real time      1.7129
    EDDIAG:  cpu time      2.0875: real time      2.0881
  RMM-DIIS:  cpu time      6.1818: real time      6.1832
    ORTHCH:  cpu time      0.6162: real time      0.6164
       DOS:  cpu time      0.0022: real time      0.0022
    CHARGE:  cpu time      0.4167: real time      0.4169
    MIXING:  cpu time      0.0036: real time      0.0036
    --------------------------------------------
      LOOP:  cpu time     11.1191: real time     11.1234

 eigenvalue-minimisations  :  6773
 total energy-change (2. order) : 0.3696100E+02  (-0.1079696E+02)
 number of electron     495.9999650 magnetization      31.9999862
 augmentation part      205.8717017 magnetization      21.3448753

 Broyden mixing:
  rms(total) = 0.10413E+02    rms(broyden)= 0.10407E+02
  rms(prec ) = 0.10900E+02
  weight for this iteration     100.00

 eigenvalues of (default mixing * dielectric matrix)
  average eigenvalue GAMMA=   0.4350
  0.6754  0.6754  0.2100  0.1792

 Free energy of the ion-electron system (eV)
  ---------------------------------------------------
  alpha Z        PSCENC =       830.52252633
  Ewald energy   TEWEN  =    228511.24919633
  -Hartree energ DENC   =   -271283.62540628
  -exchange      EXHF   =         0.00000000
  -V(xc)+E(xc)   XCENC  =      1711.71629983
  PAW double counting   =     44874.77890040   -46006.11514814
  entropy T*S    EENTRO =        -0.03446052
  eigenvalues    EBANDS =     -3447.89052848
  atomic energy  EATOM  =     44450.80657341
  Solvation  Ediel_sol  =         0.00000000
  ---------------------------------------------------
  free energy    TOTEN  =      -358.59204712 eV

  energy without entropy =     -358.55758661  energy(sigma->0) =     -358.57481686


--------------------------------------------------------------------------------------------------------




--------------------------------------- Iteration      1(  10)  ---------------------------------------


    POTLOK:  cpu time      0.0983: real time      0.1002
    SETDIJ:  cpu time      1.7142: real time      1.7145
    EDDIAG:  cpu time      2.0877: real time      2.0881
  RMM-DIIS:  cpu time      5.8563: real time      5.8576
    ORTHCH:  cpu time      0.6162: real time      0.6164
       DOS:  cpu time      0.0027: real time      0.0027
    CHARGE:  cpu time      0.4152: real time      0.4154
    MIXING:  cpu time      0.0040: real time      0.0040
    --------------------------------------------
      LOOP:  cpu time     10.7946: real time     10.7989

 eigenvalue-minimisations  :  6380
 total energy-change (2. order) : 0.2090484E+02  (-0.4449727E+01)
 number of electron     495.9999762 magnetization      31.9999826
 augmentation part      204.4644765 magnetization      22.4983092

 Broyden mixing:
  rms(total) = 0.74900E+01    rms(broyden)= 0.74859E+01
  rms(prec ) = 0.77653E+01
  weight for this iteration     100.00

 eigenvalues of (default mixing * dielectric matrix)
  average eigenvalue GAMMA=   0.4543
  0.7544  0.7544  0.3891  0.2220  0.1513

 Free energy of the ion-electron system (eV)
  ---------------------------------------------------
  alpha Z        PSCENC =       830.52252633
  Ewald energy   TEWEN  =    228511.24919633
  -Hartree energ DENC   =   -271314.34923198
  -exchange      EXHF   =         0.00000000
  -V(xc)+E(xc)   XCENC  =      1704.70632776
  PAW double counting   =     45694.61314611   -46839.86987520
  entropy T*S    EENTRO =        -0.05198029
  eigenvalues    EBANDS =     -3375.31388667
  atomic energy  EATOM  =     44450.80657341
  Solvation  Ediel_sol  =         0.00000000
  ---------------------------------------------------
  free energy    TOTEN  =      -337.68720420 eV

  energy without entropy =     -337.63522391  energy(sigma->0) =     -337.66121405


--------------------------------------------------------------------------------------------------------




--------------------------------------- Iteration      1(  11)  ---------------------------------------


    POTLOK:  cpu time      0.0984: real time      0.1017
    SETDIJ:  cpu time      1.7117: real time      1.7120
    EDDIAG:  cpu time      2.0910: real time      2.0913
  RMM-DIIS:  cpu time      6.0254: real time      6.0271
    ORTHCH:  cpu time      0.6159: real time      0.6159
       DOS:  cpu time      0.0025: real time      0.0025
    CHARGE:  cpu time      0.4152: real time      0.4154
    MIXING:  cpu time      0.0041: real time      0.0041
    --------------------------------------------
      LOOP:  cpu time     10.9641: real time     10.9699

 eigenvalue-minimisations  :  6540
 total energy-change (2. order) : 0.8926702E+00  (-0.2704413E+01)
 number of electron     495.9999747 magnetization      31.9999805
 augmentation part      203.7783775 magnetization      22.4743483

 Broyden mixing:
  rms(total) = 0.62493E+01    rms(broyden)= 0.62450E+01
  rms(prec ) = 0.64910E+01
  weight for this iteration     100.00

 eigenvalues of (default mixing * dielectric matrix)
  average eigenvalue GAMMA=   0.4649
  1.0936  0.5068  0.5068  0.3064  0.2153  0.1606

 Free energy of the ion-electron system (eV)
  ---------------------------------------------------
  alpha Z        PSCENC =       830.52252633
  Ewald energy   TEWEN  =    228511.24919633
  -Hartree energ DENC   =   -271331.85909379
  -exchange      EXHF   =         0.00000000
  -V(xc)+E(xc)   XCENC  =      1707.42892895
  PAW double counting   =     46877.45781392   -48040.12486141
  entropy T*S    EENTRO =        -0.04144216
  eigenvalues    EBANDS =     -3342.23417556
  atomic energy  EATOM  =     44450.80657341
  Solvation  Ediel_sol  =         0.00000000
  ---------------------------------------------------
  free energy    TOTEN  =      -336.79453397 eV

  energy without entropy =     -336.75309181  energy(sigma->0) =     -336.77381289


--------------------------------------------------------------------------------------------------------




--------------------------------------- Iteration      1(  12)  ---------------------------------------


    POTLOK:  cpu time      0.0966: real time      0.0982
    SETDIJ:  cpu time      1.7110: real time      1.7113
    EDDIAG:  cpu time      2.0862: real time      2.0867
  RMM-DIIS:  cpu time      5.8718: real time      5.8732
    ORTHCH:  cpu time      0.6163: real time      0.6163
       DOS:  cpu time      0.0025: real time      0.0025
    CHARGE:  cpu time      0.4152: real time      0.4154
    MIXING:  cpu time      0.0043: real time      0.0043
    --------------------------------------------
      LOOP:  cpu time     10.8040: real time     10.8079

 eigenvalue-minimisations  :  6444
 total energy-change (2. order) :-0.1779951E+01  (-0.2213520E+01)
 number of electron     495.9999724 magnetization      31.9999780
 augmentation part      203.8559155 magnetization      22.4434210

 Broyden mixing:
  rms(total) = 0.47679E+01    rms(broyden)= 0.47637E+01
  rms(prec ) = 0.49567E+01
  weight for this iteration     100.00

 eigenvalues of (default mixing * dielectric matrix)
  average eigenvalue GAMMA=   0.5064
  1.4763  0.5799  0.5799  0.3215  0.2167  0.2167  0.1542

 Free energy of the ion-electron system (eV)
  ---------------------------------------------------
  alpha Z        PSCENC =       830.52252633
  Ewald energy   TEWEN  =    228511.24919633
  -Hartree energ DENC   =   -271349.28014569
  -exchange      EXHF   =         0.00000000
  -V(xc)+E(xc)   XCENC  =      1707.97188523
  PAW double counting   =     47481.25552443   -48656.98476994
  entropy T*S    EENTRO =        -0.02518427
  eigenvalues    EBANDS =     -3314.09009113
  atomic energy  EATOM  =     44450.80657341
  Solvation  Ediel_sol  =         0.00000000
  ---------------------------------------------------
  free energy    TOTEN  =      -338.57448530 eV

  energy without entropy =     -338.54930104  energy(sigma->0) =     -338.56189317


--------------------------------------------------------------------------------------------------------




--------------------------------------- Iteration      1(  13)  ---------------------------------------


    POTLOK:  cpu time      0.0966: real time      0.0982
    SETDIJ:  cpu time      1.7141: real time      1.7144
    EDDIAG:  cpu time      2.0859: real time      2.0863
  RMM-DIIS:  cpu time      5.8130: real time      5.8145
    ORTHCH:  cpu time      0.6158: real time      0.6159
       DOS:  cpu time      0.0024: real time      0.0024
    CHARGE:  cpu time      0.4154: real time      0.4156
    MIXING:  cpu time      0.0046: real time      0.0046
    --------------------------------------------
      LOOP:  cpu time     10.7478: real time     10.7518

 eigenvalue-minimisations  :  6379
 total energy-change (2. order) : 0.1816455E+01  (-0.1213919E+01)
 number of electron     495.9999709 magnetization      31.9999763
 augmentation part      203.7002256 magnetization      22.3171957

 Broyden mixing:
  rms(total) = 0.49197E+01    rms(broyden)= 0.49144E+01
  rms(prec ) = 0.51358E+01
  weight for this iteration     100.00

 eigenvalues of (default mixing * dielectric matrix)
  average eigenvalue GAMMA=   0.5096
  1.6361  0.6319  0.6319  0.3516  0.2366  0.2366  0.1542  0.1981

 Free energy of the ion-electron system (eV)
  ---------------------------------------------------
  alpha Z        PSCENC =       830.52252633
  Ewald energy   TEWEN  =    228511.24919633
  -Hartree energ DENC   =   -271371.65561896
  -exchange      EXHF   =         0.00000000
  -V(xc)+E(xc)   XCENC  =      1712.45907713
  PAW double counting   =     48164.27017643   -49352.02313719
  entropy T*S    EENTRO =        -0.02773054
  eigenvalues    EBANDS =     -3282.35909325
  atomic energy  EATOM  =     44450.80657341
  Solvation  Ediel_sol  =         0.00000000
  ---------------------------------------------------
  free energy    TOTEN  =      -336.75803030 eV

  energy without entropy =     -336.73029976  energy(sigma->0) =     -336.74416503


--------------------------------------------------------------------------------------------------------




--------------------------------------- Iteration      1(  14)  ---------------------------------------


    POTLOK:  cpu time      0.0967: real time      0.1000
    SETDIJ:  cpu time      1.7119: real time      1.7123
    EDDIAG:  cpu time      2.0819: real time      2.0823
  RMM-DIIS:  cpu time      5.7806: real time      5.7822
    ORTHCH:  cpu time      0.6159: real time      0.6161
       DOS:  cpu time      0.0016: real time      0.0016
    CHARGE:  cpu time      0.4135: real time      0.4138
    MIXING:  cpu time      0.0049: real time      0.0049
    --------------------------------------------
      LOOP:  cpu time     10.7072: real time     10.7132

 eigenvalue-minimisations  :  6338
 total energy-change (2. order) :-0.1561112E-01  (-0.1094754E+01)
 number of electron     495.9999729 magnetization      31.9999746
 augmentation part      203.9023639 magnetization      22.6228278

 Broyden mixing:
  rms(total) = 0.34803E+01    rms(broyden)= 0.34747E+01
  rms(prec ) = 0.36238E+01
  weight for this iteration     100.00

 eigenvalues of (default mixing * dielectric matrix)
  average eigenvalue GAMMA=   0.5226
  1.7657  0.6962  0.6962  0.4656  0.2738  0.2738  0.2168  0.1671  0.1479

 Free energy of the ion-electron system (eV)
  ---------------------------------------------------
  alpha Z        PSCENC =       830.52252633
  Ewald energy   TEWEN  =    228511.24919633
  -Hartree energ DENC   =   -271401.39288643
  -exchange      EXHF   =         0.00000000
  -V(xc)+E(xc)   XCENC  =      1711.85269357
  PAW double counting   =     48471.63386410   -49667.52363713
  entropy T*S    EENTRO =        -0.00001132
  eigenvalues    EBANDS =     -3243.92196029
  atomic energy  EATOM  =     44450.80657341
  Solvation  Ediel_sol  =         0.00000000
  ---------------------------------------------------
  free energy    TOTEN  =      -336.77364142 eV

  energy without entropy =     -336.77363011  energy(sigma->0) =     -336.77363577


--------------------------------------------------------------------------------------------------------




--------------------------------------- Iteration      1(  15)  ---------------------------------------


    POTLOK:  cpu time      0.0966: real time      0.0982
    SETDIJ:  cpu time      1.7133: real time      1.7136
    EDDIAG:  cpu time      2.0896: real time      2.0900
  RMM-DIIS:  cpu time      5.8452: real time      5.8467
    ORTHCH:  cpu time      0.6160: real time      0.6162
       DOS:  cpu time      0.0024: real time      0.0024
[...]
   -.719E+00 -.324E+00 0.190E+04   0.162E+01 0.724E+00 -.190E+04   -.894E+00 -.405E+00 0.645E+01   -.398E-02 0.582E-02 -.453E-02
   -.252E+01 -.895E+01 -.189E+04   0.253E+01 0.894E+01 0.190E+04   -.586E-02 0.347E-02 -.597E+01   -.393E-02 0.871E-03 0.293E-02
   0.212E+01 -.170E+02 -.189E+04   -.231E+01 0.179E+02 0.190E+04   0.180E+00 -.833E+00 -.725E+01   0.426E-02 -.117E-02 -.128E-02
   -.164E+02 -.559E+02 0.189E+04   0.168E+02 0.566E+02 -.190E+04   -.410E+00 -.723E+00 0.613E+01   0.186E-02 -.166E-02 0.109E-03
   0.111E+02 -.598E+02 -.606E+03   -.107E+02 0.604E+02 0.604E+03   -.369E+00 -.582E+00 0.166E+01   0.148E-02 0.483E-02 0.409E-02
   -.629E+02 -.619E+01 0.613E+03   0.634E+02 0.624E+01 -.612E+03   -.462E+00 -.499E-01 -.147E+01   -.244E-02 0.135E-02 -.357E-03
   0.434E+02 -.125E+02 0.593E+03   -.436E+02 0.120E+02 -.592E+03   0.253E+00 0.529E+00 -.892E+00   0.150E-02 -.599E-03 0.956E-03
   0.304E+02 -.636E+02 -.612E+03   -.296E+02 0.643E+02 0.610E+03   -.774E+00 -.715E+00 0.174E+01   0.334E-03 -.262E-02 0.381E-02
   -.405E+02 0.172E+01 0.190E+04   0.396E+02 -.231E+01 -.190E+04   0.936E+00 0.600E+00 0.590E+01   0.472E-03 -.491E-02 -.122E-02
   -.562E+02 0.896E+01 -.185E+04   0.572E+02 -.888E+01 0.186E+04   -.985E+00 -.618E-01 -.708E+01   -.206E-02 0.197E-02 0.305E-03
   0.584E+02 0.167E+02 -.188E+04   -.601E+02 -.175E+02 0.189E+04   0.171E+01 0.756E+00 -.544E+01   -.557E-04 -.534E-03 0.147E-02
   -.523E+02 0.599E+02 0.189E+04   0.514E+02 -.614E+02 -.190E+04   0.974E+00 0.144E+01 0.554E+01   0.343E-02 0.366E-02 -.456E-02
   -.427E+02 0.592E+02 -.609E+03   0.437E+02 -.593E+02 0.608E+03   -.920E+00 0.181E+00 0.112E+01   -.115E-02 -.388E-03 0.212E-02
   -.119E+02 0.561E+01 0.604E+03   0.121E+02 -.570E+01 -.605E+03   -.159E+00 0.957E-01 0.958E+00   -.402E-03 -.256E-03 -.822E-03
   -.591E+01 0.130E+02 0.617E+03   0.598E+01 -.126E+02 -.615E+03   -.740E-01 -.384E+00 -.187E+01   -.117E-03 -.350E-03 -.430E-02
   -.153E+02 0.622E+02 -.588E+03   0.150E+02 -.630E+02 0.589E+03   0.282E+00 0.786E+00 -.117E+01   -.193E-02 0.158E-02 0.205E-02
   0.418E+01 0.527E+02 0.190E+04   -.521E+01 -.534E+02 -.190E+04   0.102E+01 0.731E+00 0.741E+01   0.256E-02 0.201E-02 -.770E-02
   0.455E+01 0.335E+02 -.190E+04   -.473E+01 -.318E+02 0.191E+04   0.171E+00 -.170E+01 -.585E+01   0.515E-02 0.385E-02 0.288E-02
   -.203E+01 -.524E+02 -.190E+04   0.218E+01 0.511E+02 0.190E+04   -.149E+00 0.132E+01 -.569E+01   -.856E-03 -.831E-02 0.824E-02
   0.168E+02 -.439E+01 0.189E+04   -.175E+02 0.448E+01 -.189E+04   0.751E+00 -.773E-01 0.750E+01   -.245E-02 -.351E-02 -.543E-03
   -.105E+02 -.443E+01 -.598E+03   0.102E+02 0.435E+01 0.595E+03   0.323E+00 0.807E-01 0.220E+01   0.283E-02 -.358E-03 0.627E-02
   0.655E+02 -.462E+02 0.602E+03   -.663E+02 0.450E+02 -.601E+03   0.887E+00 0.120E+01 -.125E+01   0.391E-03 0.129E-02 -.194E-02
   -.451E+02 0.310E+02 0.604E+03   0.457E+02 -.304E+02 -.603E+03   -.646E+00 -.607E+00 -.112E+01   -.140E-02 -.771E-03 -.173E-02
   -.317E+02 -.926E+01 -.608E+03   0.311E+02 0.946E+01 0.606E+03   0.593E+00 -.189E+00 0.150E+01   0.214E-02 -.433E-02 0.149E-02
   0.428E+02 -.546E+02 0.188E+04   -.425E+02 0.561E+02 -.188E+04   -.326E+00 -.152E+01 0.550E+01   0.479E-02 -.404E-02 0.533E-03
   0.580E+02 -.310E+02 -.190E+04   -.596E+02 0.296E+02 0.190E+04   0.157E+01 0.140E+01 -.567E+01   0.267E-02 -.522E-02 0.685E-02
   -.621E+02 0.528E+02 -.189E+04   0.642E+02 -.519E+02 0.190E+04   -.205E+01 -.943E+00 -.541E+01   -.355E-02 0.202E-02 -.656E-03
   0.519E+02 0.252E+01 0.189E+04   -.505E+02 -.249E+01 -.189E+04   -.140E+01 -.285E-01 0.555E+01   0.162E-02 0.546E-03 -.409E-02
   0.440E+02 0.650E+01 -.636E+03   -.448E+02 -.653E+01 0.636E+03   0.805E+00 0.160E-01 0.202E-01   -.160E-02 -.290E-02 -.386E-02
   0.124E+02 0.460E+02 0.614E+03   -.126E+02 -.445E+02 -.612E+03   0.214E+00 -.142E+01 -.168E+01   0.172E-02 -.611E-03 -.222E-02
   0.608E+01 -.287E+02 0.642E+03   -.630E+01 0.273E+02 -.642E+03   0.231E+00 0.140E+01 -.623E-01   -.135E-02 0.800E-03 -.464E-02
   0.143E+02 0.732E+01 -.644E+03   -.138E+02 -.754E+01 0.644E+03   -.446E+00 0.206E+00 -.224E+00   0.119E-02 0.467E-02 -.160E-02
   -.102E+02 -.122E+02 -.249E+04   0.101E+02 0.121E+02 0.249E+04   0.124E+00 0.587E-01 0.279E+01   0.128E-02 0.131E-02 0.218E-02
   -.305E+02 -.305E+02 0.252E+04   0.302E+02 0.301E+02 -.251E+04   0.293E+00 0.464E+00 -.306E+01   -.634E-03 -.189E-02 -.399E-03
   -.245E+02 -.715E+01 0.858E+03   0.241E+02 0.697E+01 -.859E+03   0.351E+00 0.196E+00 0.574E+00   0.847E-03 0.223E-02 0.768E-03
   0.246E+01 -.269E+02 -.806E+03   -.247E+01 0.267E+02 0.806E+03   0.961E-02 0.208E+00 -.581E+00   -.310E-03 -.331E-02 0.138E-02
   0.319E+02 0.239E+02 -.252E+04   -.314E+02 -.238E+02 0.252E+04   -.553E+00 -.112E+00 0.306E+01   0.881E-03 0.783E-03 0.162E-03
   0.191E+02 0.207E+02 0.250E+04   -.189E+02 -.204E+02 -.250E+04   -.160E+00 -.315E+00 -.280E+01   0.279E-03 0.211E-03 0.286E-03
   0.203E+02 0.105E+02 0.801E+03   -.201E+02 -.104E+02 -.802E+03   -.170E+00 -.100E+00 0.101E+01   -.939E-03 -.954E-03 -.959E-03
   -.106E+02 0.309E+02 -.854E+03   0.108E+02 -.301E+02 0.854E+03   -.237E+00 -.735E+00 -.490E-02   0.112E-02 -.968E-03 0.356E-03
 -----------------------------------------------------------------------------------------------
   -.143E+01 -.764E+00 -.216E+01   -.604E-13 -.419E-12 -.227E-12   0.145E+01 0.758E+00 0.228E+01   0.108E-01 -.701E-02 -.328E-02
 
 
 POSITION                                       TOTAL-FORCE (eV/Angst)
 -----------------------------------------------------------------------------------
      0.01039      0.00603      7.49987         0.006163     -0.003682     -0.002517
      2.04651      6.20576      7.57449         0.001956     -0.011223      0.006369
      6.20406      2.06043      7.54185         0.008995     -0.009290      0.013261
     -0.00199      6.21511      1.17485         0.001509      0.005464     -0.000038
      4.14480      2.05703      1.13752        -0.003090     -0.001916     -0.014182
      6.20335      0.02434      1.14782         0.004604     -0.010007     -0.013040
      2.06514      2.06035      3.23097         0.012972      0.004406      0.015727
      0.00859      4.13646      3.24671         0.000694      0.007447     -0.002919
      6.19773      6.19214      3.26639         0.014651      0.001517     -0.011797
      2.07118     -0.02209      5.41888         0.003836      0.006472      0.008216
      4.12387      6.18615      5.43121        -0.003069     -0.000323      0.012785
      6.18430      4.15124      5.43378        -0.002793     -0.003689     -0.002668
      2.03983      2.04247      7.52416        -0.000839      0.000381      0.011402
     -0.00698      4.12726      7.51467         0.008837     -0.008107     -0.002881
      4.11083     -0.00499      7.51789        -0.004889      0.003094      0.002791
     -0.00358      2.04979      1.13951        -0.001200      0.001794     -0.001111
      2.06024      0.01348      1.15233        -0.000618      0.005424     -0.010119
      6.20107      4.12354      1.14788         0.007870     -0.001859      0.000712
      0.00600      8.25302      3.24323        -0.005562      0.004139      0.002649
      2.06240      6.19401      3.24849        -0.006026     -0.001022     -0.003516
      4.12547      4.12848      3.24675        -0.004257     -0.016395     -0.007667
      0.00814      6.20179      5.41302        -0.004293      0.010427      0.000383
      4.13223      2.05665      5.42637        -0.007545      0.003957      0.011092
      6.19433     -0.01161      5.43163         0.011155      0.000564      0.013810
     -0.01923     -0.00695      1.12578         0.004901      0.000185     -0.008190
      2.06379     -0.00973      7.55348        -0.003248     -0.004444      0.007317
     -0.00472      2.04429      7.63929        -0.003433      0.005374      0.009123
      2.05618      2.00390      1.10315        -0.000729      0.001762     -0.000430
     -0.00890     -0.04144      5.40668         0.004208     -0.009803     -0.002562
      2.00833      8.25507      3.25057         0.003214      0.004567     -0.003538
      0.06079      2.08276      3.20108        -0.005757     -0.007157      0.001331
      2.08535      2.00094      5.42908         0.008180      0.009744      0.000126
     -0.01054      4.14946      1.10419         0.002546      0.005771     -0.001561
      1.98235      4.12570      7.56544        -0.002256      0.014593     -0.014857
      0.08183      6.21425      7.53892        -0.006104     -0.010099     -0.004029
      2.07322      6.25050      1.11524         0.002454     -0.007116     -0.010666
     -0.06599      4.18337      5.40227        -0.000577      0.002268      0.001314
      2.06398      4.13017      3.29464         0.008325      0.002336      0.001690
     -0.00382      6.17948      3.24753        -0.010271      0.010395     -0.010452
      2.07462      6.24204      5.33817        -0.005521     -0.007680      0.004452
      4.15992      0.07077      1.01297        -0.009894      0.005009     -0.012688
      6.19241     -0.00564      7.57612        -0.006955     -0.009318      0.012166
      4.11936      2.05743      7.58689         0.002491      0.004075      0.014673
      6.22198      2.07453      1.04278        -0.000250      0.007092     -0.001803
      4.14924     -0.00124      5.47833        -0.004016      0.000104      0.000365
      6.24591      0.00637      3.27080        -0.007198      0.000347     -0.003983
      4.08905      2.06102      3.26655        -0.002130     -0.005354      0.001664
      6.17771      2.06359      5.48283        -0.000753      0.009852      0.010757
      4.13796      4.07840      1.11837        -0.006811      0.002111      0.006405
      6.24387      4.14956      7.58984        -0.003598      0.001061      0.002148
      4.04164      6.18160      7.57563        -0.003846     -0.004762     -0.011883
      6.19159      6.20000      1.12807         0.004712     -0.002712     -0.003678
      4.18450      4.11615      5.36412        -0.003745     -0.009822     -0.006459
      6.20107      4.13182      3.24419        -0.010177      0.000528      0.001934
      4.13508      6.17362      3.30739         0.009592      0.008417     -0.004737
      6.18246      6.20622      5.37287        -0.000823     -0.011029     -0.002516
      4.09917      4.11514      7.59898        -0.002515     -0.005082      0.005727
      2.04618      4.09713      1.06345         0.007060      0.002143     -0.005576
      4.11394      8.22872      3.23102        -0.000643      0.010924     -0.012132
      0.00458      2.07321      5.40943         0.005190      0.003168      0.001296
      6.21899      6.20731      7.59782        -0.000556      0.001824      0.009484
      4.13996      6.22862      1.06369         0.005083      0.003749     -0.014546
      6.21580      2.07350      3.24877        -0.007052     -0.002417      0.009025
      2.06829      4.14298      5.43142         0.001847     -0.008176      0.008546
 -----------------------------------------------------------------------------------
    total drift:                                0.027991     -0.012719      0.116841


--------------------------------------------------------------------------------------------------------



  FREE ENERGIE OF THE ION-ELECTRON SYSTEM (eV)
  ---------------------------------------------------
  free  energy   TOTEN  =      -350.05241777 eV

  energy  without entropy=     -350.05241777  energy(sigma->0) =     -350.05241777
 
 d Force = 0.1196619E-02[ 0.313E-03, 0.208E-02]  d Energy = 0.1256015E-02-0.594E-04
 d Force = 0.1082056E+03[ 0.108E+03, 0.108E+03]  d Ewald  = 0.1082056E+03 0.361E-05


--------------------------------------------------------------------------------------------------------


    POTLOK:  cpu time      1.8147: real time      1.8151


--------------------------------------------------------------------------------------------------------


 stress matrix after NEB project (eV)
    -12.55523     -0.51208     -0.43983
     -0.51496    -15.03754     -0.38487
     -0.43281     -0.36056    -22.55905
  FORCES: max atom, RMS     0.020946    0.011941
  FORCE total and by dimension    0.095529    0.016395
  Stress total and by dimension   29.897469   22.559053
 Conjugate gradient step on ions:
 trial-energy change:   -0.001256  1 .order   -0.001197   -0.002080   -0.000313
  (g-gl).g = 0.131E-02      g.g   = 0.122E-02  gl.gl    = 0.407E-02
 g(Force)  = 0.122E-02   g(Stress)= 0.000E+00 ortho     = 0.469E-04
 gamma     =   0.32210
 trial     =   1.67820
 opt step  =   1.92009  (harmonic =   1.97593) maximal distance =0.00420517
 next E    =  -350.052441   (d E  =  -0.00128)


--------------------------------------------------------------------------------------------------------


  
 reached required accuracy - stopping structural energy minimisation
     LOOP+:  cpu time    103.5607: real time    103.6120
    4ORBIT:  cpu time      0.0000: real time      0.0000



 total charge

# of ion       s       p       d       tot
------------------------------------------
    1        0.342   0.395   8.213   8.951
    2        0.347   0.403   8.269   9.019
    3        0.337   0.385   8.203   8.925
    4        0.342   0.392   8.210   8.944
    5        0.347   0.403   8.211   8.962
    6        0.341   0.393   8.207   8.941
    7        0.352   0.442   8.259   9.054
    8        0.347   0.433   8.250   9.029
    9        0.346   0.433   8.250   9.029
   10        0.352   0.442   8.259   9.053
   11        0.346   0.430   8.247   9.023
   12        0.353   0.443   8.258   9.054
   13        0.341   0.388   8.190   8.919
   14        0.353   0.409   8.205   8.966
   15        0.345   0.397   8.193   8.934
   16        0.339   0.388   8.260   8.988
   17        0.351   0.404   8.204   8.959
   18        0.343   0.392   8.189   8.924
   19        0.355   0.445   8.248   9.049
   20        0.349   0.436   8.251   9.036
   21        0.349   0.435   8.233   9.018
   22        0.353   0.441   8.244   9.038
   23        0.348   0.431   8.235   9.013
   24        0.347   0.432   8.247   9.027
   25        1.577   3.453   0.000   5.029
   26        1.575   3.455   0.000   5.030
   27        1.576   3.448   0.000   5.024
   28        1.576   3.461   0.000   5.036
   29        1.577   3.491   0.000   5.068
   30        1.578   3.493   0.000   5.071
   31        1.580   3.489   0.000   5.069
   32        1.578   3.493   0.000   5.072
   33        1.576   3.456   0.000   5.032
   34        1.575   3.466   0.000   5.041
   35        1.576   3.459   0.000   5.035
   36        1.576   3.463   0.000   5.038
   37        1.578   3.495   0.000   5.073
   38        1.577   3.492   0.000   5.069
   39        1.578   3.486   0.000   5.064
   40        1.579   3.490   0.000   5.068
   41        1.576   3.455   0.000   5.032
   42        1.576   3.457   0.000   5.034
   43        1.576   3.456   0.000   5.032
   44        1.577   3.448   0.000   5.025
   45        1.577   3.491   0.000   5.068
   46        1.578   3.495   0.000   5.073
   47        1.578   3.492   0.000   5.070
   48        1.578   3.492   0.000   5.070
   49        1.575   3.462   0.000   5.037
   50        1.576   3.462   0.000   5.038
   51        1.576   3.459   0.000   5.034
   52        1.577   3.457   0.000   5.034
   53        1.577   3.493   0.000   5.069
   54        1.579   3.489   0.000   5.069
   55        1.578   3.495   0.000   5.073
   56        1.578   3.484   0.000   5.062
   57        0.296   0.346   6.101   6.742
   58        0.294   0.342   6.099   6.736
   59        0.302   0.383   6.152   6.837
   60        0.302   0.384   6.153   6.839
   61        0.292   0.342   6.115   6.749
   62        0.295   0.346   6.112   6.753
   63        0.304   0.391   6.163   6.859
   64        0.303   0.388   6.159   6.851
--------------------------------------------------
tot         61.178 124.092 246.587 431.857



 magnetization (x)

# of ion       s       p       d       tot
------------------------------------------
    1       -0.002  -0.000  -1.697  -1.700
    2        0.002   0.007   0.092   0.102
    3       -0.000  -0.004  -1.704  -1.709
    4       -0.001  -0.002  -1.700  -1.704
    5       -0.005  -0.003  -1.703  -1.711
    6       -0.002   0.000  -1.698  -1.700
    7        0.001   0.003  -1.701  -1.696
    8        0.003   0.005  -1.700  -1.692
    9        0.003   0.004  -1.708  -1.701
   10        0.001   0.004  -1.704  -1.700
   11        0.001   0.004  -1.705  -1.700
   12        0.001   0.003  -1.700  -1.696
   13        0.009   0.005   1.725   1.739
   14        0.013   0.006   1.725   1.744
   15        0.011   0.012   1.736   1.759
   16       -0.012  -0.016  -0.047  -0.075
   17        0.012   0.007   1.722   1.741
   18        0.012   0.007   1.732   1.750
   19        0.006   0.001   1.727   1.735
   20       -0.001  -0.007   1.713   1.706
   21        0.008   0.004   1.744   1.755
   22        0.005   0.001   1.728   1.735
   23        0.005  -0.000   1.731   1.736
   24       -0.002  -0.008   1.710   1.700
   25        0.004   0.049   0.000   0.053
   26        0.002  -0.000   0.000   0.002
   27        0.004   0.031   0.000   0.035
   28        0.003  -0.000   0.000   0.003
   29        0.006   0.028   0.000   0.034
   30        0.008   0.070   0.000   0.078
   31        0.000  -0.048   0.000  -0.047
   32        0.008   0.070   0.000   0.078
   33        0.005   0.027   0.000   0.032
   34        0.014   0.104   0.000   0.118
   35        0.006   0.041   0.000   0.047
   36        0.009   0.076   0.000   0.085
   37        0.008   0.058   0.000   0.066
   38        0.007   0.058   0.000   0.066
   39        0.000  -0.019   0.000  -0.018
   40        0.003   0.016   0.000   0.020
   41        0.004   0.024   0.000   0.028
   42        0.003   0.043   0.000   0.046
   43        0.010   0.096   0.000   0.106
   44        0.002   0.022   0.000   0.024
   45        0.008   0.071   0.000   0.079
   46        0.007   0.036   0.000   0.042
   47        0.007   0.038   0.000   0.045
   48        0.007   0.026   0.000   0.033
   49        0.010   0.082   0.000   0.092
   50        0.004   0.010   0.000   0.013
   51        0.006   0.024   0.000   0.030
   52       -0.002  -0.023   0.000  -0.025
   53        0.008   0.055   0.000   0.063
   54        0.001   0.028   0.000   0.029
   55        0.008   0.061   0.000   0.069
   56        0.001  -0.001   0.000  -0.000
   57        0.040   0.030   3.680   3.750
   58        0.039   0.030   3.676   3.746
   59        0.029   0.029   3.692   3.749
   60        0.026   0.024   3.673   3.723
   61        0.024   0.014   3.634   3.672
   62        0.022   0.012   3.645   3.679
   63        0.014   0.009   3.648   3.671
   64        0.015   0.012   3.666   3.694
--------------------------------------------------
tot          0.450   1.345  29.628  31.423
 

 total amount of memory used by VASP MPI-rank0   123327. kBytes
=======================================================================

   base      :      30000. kBytes
   nonlr-proj:       4127. kBytes
   fftplans  :       3778. kBytes
   grid      :       9886. kBytes
   one-center:        404. kBytes
   wavefun   :      75132. kBytes
 
  
  
 General timing and accounting informations for this job:
 ========================================================
  
                  Total CPU time used (sec):     5607.518
                            User time (sec):     5433.875
                          System time (sec):      173.643
                         Elapsed time (sec):     5610.626
  
                   Maximum memory used (kb):      261288.
                   Average memory used (kb):          N/A
  
                          Minor page faults:       431152
                          Major page faults:            0
                 Voluntary context switches:        62241
