 vasp.6.2.1 16May21 (build Jul 21 2021 15:04:57) complex                        
  
 executed on                  O3N date 2022.02.07  03:09:30
 running  136 mpi-ranks, with    1 threads/rank
 distrk:  each k-point on  136 cores,    1 groups
 distr:  one band on NCORE=   1 cores,  136 groups


--------------------------------------------------------------------------------------------------------


 INCAR:
   ISTART = 0
   ICHARG = 2
   IDIPOL = 3
   MAGMOM = 42*0.166166667 13*0 26*0.125423077 9*0  27*2.7733 17*4.110533 3*1.802  46*0
   NUPDOWN = 163
   LORBIT = 11
   ISPIN = 2
   LDAU = .TRUE
   LDAUTYPE = 2
   LDAUL = -1 -1 2 2 -1 -1 3
   LDAUU = 0 0 4 7 0 0 6
   LDAUJ = 0 0 0 0 0 0 0
   ENCUT = 400
   PREC = Normal
   EDIFF = 1E-05
   GGA = PE
   ISMEAR = 0
   SIGMA = 0.05
   ALGO = F
   LREAL = A
   LMAXMIX = 6
   ISYM = 1
   NSW = 800
   IBRION = 2
   POTIM = 0.5
   ISIF = 2
   EDIFFG = -3E-02
   LWAVE = .FALSE.
   LCHARG = .FALSE.

 POTCAR:    PAW_PBE O 08Apr2002                   
 POTCAR:    PAW_PBE Fe_pv 02Aug2007               
 POTCAR:    PAW_PBE Fe_pv 02Aug2007               
 POTCAR:    PAW_PBE Ni_pv 06Sep2000               
 POTCAR:    PAW_PBE Sr_sv 07Sep2000               
 POTCAR:    PAW_PBE Ba_sv 06Sep2000               
 POTCAR:    PAW_PBE Pr_3 07Sep2000                
 POTCAR:    PAW_PBE O 08Apr2002                   
   VRHFIN =O: s2p4                                                                                  
   LEXCH  = PE                                                                                      
   EATOM  =   432.3788 eV,   31.7789 Ry                                                             
                                                                                                    
   TITEL  = PAW_PBE O 08Apr2002                                                                     
   LULTRA =        F    use ultrasoft PP ?                                                          
   IUNSCR =        1    unscreen: 0-lin 1-nonlin 2-no                                               
   RPACOR =    1.200    partial core radius                                                         
   POMASS =   16.000; ZVAL   =    6.000    mass and valenz                                          
   RCORE  =    1.520    outmost cutoff radius                                                       
   RWIGS  =    1.550; RWIGS  =    0.820    wigner-seitz radius (au A)                               
   ENMAX  =  400.000; ENMIN  =  300.000 eV                                                          
   ICORE  =        2    local potential                                                             
   LCOR   =        T    correct aug charges                                                         
   LPAW   =        T    paw PP                                                                      
   EAUG   =  605.392                                                                                
   DEXC   =    0.000                                                                                
   RMAX   =    1.553    core radius for proj-oper                                                   
   RAUG   =    1.300    factor for augmentation sphere                                              
   RDEP   =    1.550    radius for radial grids                                                     
   RDEPT  =    1.329    core radius for aug-charge                                                  
                                                                                                    
   Atomic configuration                                                                             
    4 entries                                                                                       
     n  l   j            E        occ.                                                              
     1  0  0.50      -514.6923   2.0000                                                             
     2  0  0.50       -23.9615   2.0000                                                             
     2  1  0.50        -9.0305   4.0000                                                             
     3  2  1.50        -9.5241   0.0000                                                             
   Description                                                                                      
     l       E           TYP  RCUT    TYP  RCUT                                                     
     0    -23.9615318     23  1.200                                                                 
     0     -9.5240782     23  1.200                                                                 
     1     -9.0304911     23  1.520                                                                 
     1      8.1634956     23  1.520                                                                 
     2     -9.5240782      7  1.500                                                                 
  local pseudopotential read in
  partial core-charges read in
  partial kinetic energy density read in
  kinetic energy density of atom read in
  atomic valenz-charges read in
  non local Contribution for L=           0  read in
    real space projection operators read in
  non local Contribution for L=           0  read in
    real space projection operators read in
  non local Contribution for L=           1  read in
    real space projection operators read in
  non local Contribution for L=           1  read in
    real space projection operators read in
    PAW grid and wavefunctions read in
 
   number of l-projection  operators is LMAX  =           4
   number of lm-projection operators is LMMAX =           8
 
 POTCAR:    PAW_PBE Fe_pv 02Aug2007               
   VRHFIN =Fe:  3pd7s1                                                                              
   LEXCH  = PE                                                                                      
   EATOM  =  2457.4239 eV,  180.6156 Ry                                                             
                                                                                                    
   TITEL  = PAW_PBE Fe_pv 02Aug2007                                                                 
   LULTRA =        F    use ultrasoft PP ?                                                          
   IUNSCR =        1    unscreen: 0-lin 1-nonlin 2-no                                               
   RPACOR =    1.750    partial core radius                                                         
   POMASS =   55.847; ZVAL   =   14.000    mass and valenz                                          
   RCORE  =    2.200    outmost cutoff radius                                                       
   RWIGS  =    2.200; RWIGS  =    1.164    wigner-seitz radius (au A)                               
   ENMAX  =  293.238; ENMIN  =  219.928 eV                                                          
   ICORE  =        3    local potential                                                             
   LCOR   =        T    correct aug charges                                                         
   LPAW   =        T    paw PP                                                                      
   EAUG   =  578.342                                                                                
   DEXC   =    0.000                                                                                
   RMAX   =    2.249    core radius for proj-oper                                                   
   RAUG   =    1.300    factor for augmentation sphere                                              
   RDEP   =    2.296    radius for radial grids                                                     
   RDEPT  =    1.766    core radius for aug-charge                                                  
                                                                                                    
   Atomic configuration                                                                             
    8 entries                                                                                       
     n  l   j            E        occ.                                                              
     1  0  0.50     -6993.8440   2.0000                                                             
     2  0  0.50      -814.6047   2.0000                                                             
     2  1  1.50      -693.3689   6.0000                                                             
     3  0  0.50       -89.4732   2.0000                                                             
     3  1  1.50       -55.6373   6.0000                                                             
     3  2  2.50        -3.8151   7.0000                                                             
     4  0  0.50        -4.2551   1.0000                                                             
     4  3  2.50        -1.3606   0.0000                                                             
   Description                                                                                      
     l       E           TYP  RCUT    TYP  RCUT                                                     
     1    -55.6372668     23  2.000                                                                 
     1     -5.4423304     23  2.000                                                                 
     2     -3.8151096     23  2.200                                                                 
     2     -5.1756922     23  2.200                                                                 
     0     -4.2550951     23  2.200                                                                 
     0     27.2116520     23  2.200                                                                 
     3     -1.3605826     23  2.200                                                                 
  local pseudopotential read in
  partial core-charges read in
  partial kinetic energy density read in
  atomic valenz-charges read in
  non local Contribution for L=           1  read in
    real space projection operators read in
  non local Contribution for L=           1  read in
    real space projection operators read in
  non local Contribution for L=           2  read in
    real space projection operators read in
  non local Contribution for L=           2  read in
    real space projection operators read in
  non local Contribution for L=           0  read in
    real space projection operators read in
  non local Contribution for L=           0  read in
    real space projection operators read in
    PAW grid and wavefunctions read in
 
   number of l-projection  operators is LMAX  =           6
   number of lm-projection operators is LMMAX =          18
 
 POTCAR:    PAW_PBE Fe_pv 02Aug2007               
   VRHFIN =Fe:  3pd7s1                                                                              
   LEXCH  = PE                                                                                      
   EATOM  =  2457.4239 eV,  180.6156 Ry                                                             
                                                                                                    
   TITEL  = PAW_PBE Fe_pv 02Aug2007                                                                 
   LULTRA =        F    use ultrasoft PP ?                                                          
   IUNSCR =        1    unscreen: 0-lin 1-nonlin 2-no                                               
   RPACOR =    1.750    partial core radius                                                         
   POMASS =   55.847; ZVAL   =   14.000    mass and valenz                                          
   RCORE  =    2.200    outmost cutoff radius                                                       
   RWIGS  =    2.200; RWIGS  =    1.164    wigner-seitz radius (au A)                               
   ENMAX  =  293.238; ENMIN  =  219.928 eV                                                          
   ICORE  =        3    local potential                                                             
   LCOR   =        T    correct aug charges                                                         
   LPAW   =        T    paw PP                                                                      
   EAUG   =  578.342                                                                                
   DEXC   =    0.000                                                                                
   RMAX   =    2.249    core radius for proj-oper                                                   
   RAUG   =    1.300    factor for augmentation sphere                                              
   RDEP   =    2.296    radius for radial grids                                                     
   RDEPT  =    1.766    core radius for aug-charge                                                  
                                                                                                    
   Atomic configuration                                                                             
    8 entries                                                                                       
     n  l   j            E        occ.                                                              
     1  0  0.50     -6993.8440   2.0000                                                             
     2  0  0.50      -814.6047   2.0000                                                             
     2  1  1.50      -693.3689   6.0000                                                             
     3  0  0.50       -89.4732   2.0000                                                             
     3  1  1.50       -55.6373   6.0000                                                             
     3  2  2.50        -3.8151   7.0000                                                             
     4  0  0.50        -4.2551   1.0000                                                             
     4  3  2.50        -1.3606   0.0000                                                             
   Description                                                                                      
     l       E           TYP  RCUT    TYP  RCUT                                                     
     1    -55.6372668     23  2.000                                                                 
     1     -5.4423304     23  2.000                                                                 
     2     -3.8151096     23  2.200                                                                 
     2     -5.1756922     23  2.200                                                                 
     0     -4.2550951     23  2.200                                                                 
     0     27.2116520     23  2.200                                                                 
     3     -1.3605826     23  2.200                                                                 
  local pseudopotential read in
  partial core-charges read in
  partial kinetic energy density read in
  atomic valenz-charges read in
  non local Contribution for L=           1  read in
    real space projection operators read in
  non local Contribution for L=           1  read in
    real space projection operators read in
  non local Contribution for L=           2  read in
    real space projection operators read in
  non local Contribution for L=           2  read in
    real space projection operators read in
  non local Contribution for L=           0  read in
    real space projection operators read in
  non local Contribution for L=           0  read in
    real space projection operators read in
    PAW grid and wavefunctions read in
 
   number of l-projection  operators is LMAX  =           6
   number of lm-projection operators is LMMAX =          18
 
 POTCAR:    PAW_PBE Ni_pv 06Sep2000               
   VRHFIN =Ni:                                                                                      
   LEXCH  = PE                                                                                      
   EATOM  =  3501.1230 eV,  257.3253 Ry                                                             
                                                                                                    
   TITEL  = PAW_PBE Ni_pv 06Sep2000                                                                 
   LULTRA =        F    use ultrasoft PP ?                                                          
   IUNSCR =        1    unscreen: 0-lin 1-nonlin 2-no                                               
   RPACOR =    1.500    partial core radius                                                         
   POMASS =   58.690; ZVAL   =   16.000    mass and valenz                                          
   RCORE  =    2.000    outmost cutoff radius                                                       
   RWIGS  =    2.000; RWIGS  =    1.058    wigner-seitz radius (au A)                               
   ENMAX  =  367.986; ENMIN  =  275.989 eV                                                          
   RCLOC  =    1.301    cutoff for local pot                                                        
   LCOR   =        T    correct aug charges                                                         
   LPAW   =        T    paw PP                                                                      
   EAUG   =  703.443                                                                                
   DEXC   =    0.000                                                                                
   RMAX   =    2.041    core radius for proj-oper                                                   
   RAUG   =    1.300    factor for augmentation sphere                                              
   RDEP   =    2.103    radius for radial grids                                                     
   RDEPT  =    1.618    core radius for aug-charge                                                  
                                                                                                    
   Atomic configuration                                                                             
    8 entries                                                                                       
     n  l   j            E        occ.                                                              
     1  0  0.50     -8206.4253   2.0000                                                             
     2  0  0.50      -976.1748   2.0000                                                             
     2  1  1.50      -839.0571   6.0000                                                             
     3  0  0.50      -105.9991   2.0000                                                             
     3  1  1.50       -66.4603   6.0000                                                             
     3  2  2.50        -4.6458   9.0000                                                             
     4  0  0.50        -4.4926   1.0000                                                             
     4  3  2.50        -1.3606   0.0000                                                             
   Description                                                                                      
     l       E           TYP  RCUT    TYP  RCUT                                                     
     1    -66.4602962     23  1.700                                                                 
     1     -1.3605826     23  1.700                                                                 
     2     -4.6457867     23  2.000                                                                 
     2     -6.0063693     23  2.000                                                                 
     0     -4.4925576     23  1.900                                                                 
     0     16.3626226     23  1.900                                                                 
  local pseudopotential read in
  partial core-charges read in
  partial kinetic energy density read in
  atomic valenz-charges read in
  non local Contribution for L=           1  read in
    real space projection operators read in
  non local Contribution for L=           1  read in
    real space projection operators read in
  non local Contribution for L=           2  read in
    real space projection operators read in
  non local Contribution for L=           2  read in
    real space projection operators read in
  non local Contribution for L=           0  read in
    real space projection operators read in
  non local Contribution for L=           0  read in
    real space projection operators read in
    PAW grid and wavefunctions read in
 
   number of l-projection  operators is LMAX  =           6
   number of lm-projection operators is LMMAX =          18
 
 POTCAR:    PAW_PBE Sr_sv 07Sep2000               
   VRHFIN =Sr: 4s4p5s                                                                               
   LEXCH  = PE                                                                                      
   EATOM  =   843.0319 eV,   61.9611 Ry                                                             
                                                                                                    
   TITEL  = PAW_PBE Sr_sv 07Sep2000                                                                 
   LULTRA =        F    use ultrasoft PP ?                                                          
   IUNSCR =        1    unscreen: 0-lin 1-nonlin 2-no                                               
   RPACOR =    2.200    partial core radius                                                         
   POMASS =   87.620; ZVAL   =   10.000    mass and valenz                                          
   RCORE  =    2.500    outmost cutoff radius                                                       
   RWIGS  =    4.040; RWIGS  =    2.138    wigner-seitz radius (au A)                               
   ENMAX  =  229.353; ENMIN  =  172.014 eV                                                          
   RCLOC  =    2.201    cutoff for local pot                                                        
   LCOR   =        T    correct aug charges                                                         
   LPAW   =        T    paw PP                                                                      
   EAUG   =  366.804                                                                                
   DEXC   =    0.000                                                                                
   RMAX   =    2.547    core radius for proj-oper                                                   
   RAUG   =    1.300    factor for augmentation sphere                                              
   RDEP   =    2.562    radius for radial grids                                                     
   RDEPT  =    2.128    core radius for aug-charge                                                  
                                                                                                    
   Atomic configuration                                                                             
   10 entries                                                                                       
     n  l   j            E        occ.                                                              
     1  0  0.50    -15934.8930   2.0000                                                             
     2  0  0.50     -2157.6250   2.0000                                                             
     2  1  1.50     -1917.0034   6.0000                                                             
     3  0  0.50      -333.7288   2.0000                                                             
     3  1  1.50      -256.0992   6.0000                                                             
     3  2  2.50      -127.9971  10.0000                                                             
     4  0  0.50       -40.8953   2.0000                                                             
     5  0  0.50        -3.5257   1.9990                                                             
     4  1  1.50       -22.8179   6.0000                                                             
     4  2  1.50        -1.2815   0.0010                                                             
   Description                                                                                      
     l       E           TYP  RCUT    TYP  RCUT                                                     
     0    -40.8953213     23  2.480                                                                 
     0     -3.5257161     23  2.480                                                                 
     1    -22.8178632     23  2.500                                                                 
     1    -24.1784458     23  2.500                                                                 
     2     -1.2814598     23  2.500                                                                 
     2      0.2279365     23  2.500                                                                 
  local pseudopotential read in
  partial core-charges read in
  partial kinetic energy density read in
  atomic valenz-charges read in
  non local Contribution for L=           0  read in
    real space projection operators read in
  non local Contribution for L=           0  read in
    real space projection operators read in
  non local Contribution for L=           1  read in
    real space projection operators read in
  non local Contribution for L=           1  read in
    real space projection operators read in
  non local Contribution for L=           2  read in
    real space projection operators read in
  non local Contribution for L=           2  read in
    real space projection operators read in
    PAW grid and wavefunctions read in
 
   number of l-projection  operators is LMAX  =           6
   number of lm-projection operators is LMMAX =          18
 
 POTCAR:    PAW_PBE Ba_sv 06Sep2000               
   VRHFIN =Ba: 5s5p6s                                                                               
   LEXCH  = PE                                                                                      
   EATOM  =   700.8560 eV,   51.5115 Ry                                                             
                                                                                                    
   TITEL  = PAW_PBE Ba_sv 06Sep2000                                                                 
   LULTRA =        F    use ultrasoft PP ?                                                          
   IUNSCR =        1    unscreen: 0-lin 1-nonlin 2-no                                               
   RPACOR =    2.400    partial core radius                                                         
   POMASS =  137.327; ZVAL   =   10.000    mass and valenz                                          
   RCORE  =    2.800    outmost cutoff radius                                                       
   RWIGS  =    3.740; RWIGS  =    1.979    wigner-seitz radius (au A)                               
   ENMAX  =  187.181; ENMIN  =  140.386 eV                                                          
   RCLOC  =    2.516    cutoff for local pot                                                        
   LCOR   =        T    correct aug charges                                                         
   LPAW   =        T    paw PP                                                                      
   EAUG   =  351.165                                                                                
   DEXC   =    0.000                                                                                
   RMAX   =    2.865    core radius for proj-oper                                                   
   RAUG   =    1.300    factor for augmentation sphere                                              
   RDEP   =    2.976    radius for radial grids                                                     
   RDEPT  =    2.289    core radius for aug-charge                                                  
                                                                                                    
   Atomic configuration                                                                             
   13 entries                                                                                       
     n  l   j            E        occ.                                                              
     1  0  0.50    -37249.5946   2.0000                                                             
     2  0  0.50     -5887.1925   2.0000                                                             
     2  1  1.50     -5278.3977   6.0000                                                             
     3  0  0.50     -1242.7293   2.0000                                                             
     3  1  1.50     -1047.6609   6.0000                                                             
     3  2  2.50      -764.6158  10.0000                                                             
     4  0  0.50      -243.8228   2.0000                                                             
     4  1  1.50      -180.9218   6.0000                                                             
     4  2  2.50       -89.6477  10.0000                                                             
     5  0  0.50       -33.6549   2.0000                                                             
     6  0  0.50        -3.2247   1.9900                                                             
     5  1  1.50       -18.7193   6.0000                                                             
     5  2  2.50        -2.0115   0.0100                                                             
   Description                                                                                      
     l       E           TYP  RCUT    TYP  RCUT                                                     
     0    -33.6549039     23  2.800                                                                 
     0     -3.2246942     23  2.800                                                                 
     1    -18.7193050     23  2.700                                                                 
     1     27.2116520     23  2.700                                                                 
     2     -2.0115002     23  2.700                                                                 
     2      0.3057420     23  2.700                                                                 
  local pseudopotential read in
  partial core-charges read in
  partial kinetic energy density read in
  atomic valenz-charges read in
  non local Contribution for L=           0  read in
    real space projection operators read in
  non local Contribution for L=           0  read in
    real space projection operators read in
  non local Contribution for L=           1  read in
    real space projection operators read in
  non local Contribution for L=           1  read in
    real space projection operators read in
  non local Contribution for L=           2  read in
    real space projection operators read in
  non local Contribution for L=           2  read in
    real space projection operators read in
    PAW grid and wavefunctions read in
 
   number of l-projection  operators is LMAX  =           6
   number of lm-projection operators is LMMAX =          18
 
 POTCAR:    PAW_PBE Pr_3 07Sep2000                
   VRHFIN =Pr : [core=Xe4]                                                                          
   LEXCH  = PE                                                                                      
   EATOM  =   912.8502 eV,   67.0926 Ry                                                             
                                                                                                    
   TITEL  = PAW_PBE Pr_3 07Sep2000                                                                  
   LULTRA =        F    use ultrasoft PP ?                                                          
   IUNSCR =        1    unscreen: 0-lin 1-nonlin 2-no                                               
   RPACOR =    2.400    partial core radius                                                         
   POMASS =  140.907; ZVAL   =   11.000    mass and valenz                                          
   RCORE  =    2.800    outmost cutoff radius                                                       
   RWIGS  =    3.100; RWIGS  =    1.640    wigner-seitz radius (au A)                               
   ENMAX  =  181.719; ENMIN  =  136.289 eV                                                          
   RCLOC  =    2.419    cutoff for local pot                                                        
   LCOR   =        T    correct aug charges                                                         
   LPAW   =        T    paw PP                                                                      
   EAUG   =  303.718                                                                                
   DEXC   =    0.000                                                                                
   RMAX   =    2.867    core radius for proj-oper                                                   
   RAUG   =    1.300    factor for augmentation sphere                                              
   RDEP   =    2.816    radius for radial grids                                                     
   RDEPT  =    2.395    core radius for aug-charge                                                  
                                                                                                    
   Atomic configuration                                                                             
   14 entries                                                                                       
     n  l   j            E        occ.                                                              
     1  0  0.50    -41810.3934   2.0000                                                             
     2  0  0.50     -6731.1418   2.0000                                                             
     2  1  1.50     -6022.4876   6.0000                                                             
     3  0  0.50     -1458.2043   2.0000                                                             
     3  1  1.50     -1233.8862   6.0000                                                             
     3  2  2.50      -919.2566  10.0000                                                             
     4  0  0.50      -295.2681   2.0000                                                             
     4  1  1.50      -221.8430   6.0000                                                             
     4  2  2.50      -116.8418  10.0000                                                             
     4  3  2.50        -6.2311   2.0000                                                             
     5  0  0.50       -42.1589   2.0000                                                             
     6  0  0.50        -3.8068   2.0000                                                             
     5  1  1.50       -23.9655   6.0000                                                             
     5  2  2.50        -3.0008   1.0000                                                             
   Description                                                                                      
     l       E           TYP  RCUT    TYP  RCUT                                                     
     0    -42.1589422     23  2.800                                                                 
     0     -3.8068346     23  2.800                                                                 
     1    -23.9655307     23  2.800                                                                 
     1     13.6058260     23  2.800                                                                 
     2     -3.0008139     23  2.800                                                                 
     2     -0.1733532     23  2.800                                                                 
  local pseudopotential read in
  partial core-charges read in
  partial kinetic energy density read in
  atomic valenz-charges read in
  non local Contribution for L=           0  read in
    real space projection operators read in
  non local Contribution for L=           0  read in
    real space projection operators read in
  non local Contribution for L=           1  read in
    real space projection operators read in
  non local Contribution for L=           1  read in
    real space projection operators read in
  non local Contribution for L=           2  read in
    real space projection operators read in
  non local Contribution for L=           2  read in
    real space projection operators read in
    PAW grid and wavefunctions read in
 
   number of l-projection  operators is LMAX  =           6
   number of lm-projection operators is LMMAX =          18
 
 Optimization of the real space projectors (new method)

 maximal supplied QI-value         = 24.76
 optimisation between [QCUT,QGAM] = [ 10.15, 20.30] = [ 28.85,115.39] Ry 
 Optimized for a Real-space Cutoff    1.38 Angstroem

   l    n(q)    QCUT    max X(q) W(low)/X(q) W(high)/X(q)  e(spline) 
   0      8    10.150    20.381    0.22E-03    0.32E-03    0.29E-06
   0      8    10.150    15.268    0.23E-03    0.35E-03    0.30E-06
   1      8    10.150     5.964    0.46E-03    0.53E-03    0.21E-06
   1      8    10.150     5.382    0.38E-03    0.45E-03    0.19E-06
 Optimization of the real space projectors (new method)

 maximal supplied QI-value         = 17.01
 optimisation between [QCUT,QGAM] = [ 10.20, 20.41] = [ 29.16,116.64] Ry 
 Optimized for a Real-space Cutoff    1.42 Angstroem

   l    n(q)    QCUT    max X(q) W(low)/X(q) W(high)/X(q)  e(spline) 
   1      8    10.205     4.267    0.23E-03    0.43E-03    0.13E-06
   1      8    10.205     5.750    0.38E-03    0.68E-03    0.21E-06
   2      8    10.205    53.656    0.15E-03    0.32E-03    0.14E-06
   2      8    10.205    49.521    0.16E-03    0.33E-03    0.14E-06
   0      9    10.205    31.246    0.95E-04    0.89E-04    0.64E-07
   0      9    10.205    12.201    0.77E-04    0.76E-04    0.54E-07
 Optimization of the real space projectors (new method)

 maximal supplied QI-value         = 17.01
 optimisation between [QCUT,QGAM] = [ 10.20, 20.41] = [ 29.16,116.64] Ry 
 Optimized for a Real-space Cutoff    1.42 Angstroem

   l    n(q)    QCUT    max X(q) W(low)/X(q) W(high)/X(q)  e(spline) 
   1      8    10.205     4.267    0.23E-03    0.43E-03    0.13E-06
   1      8    10.205     5.750    0.38E-03    0.68E-03    0.21E-06
   2      8    10.205    53.656    0.15E-03    0.32E-03    0.14E-06
   2      8    10.205    49.521    0.16E-03    0.33E-03    0.14E-06
   0      9    10.205    31.246    0.95E-04    0.89E-04    0.64E-07
   0      9    10.205    12.201    0.77E-04    0.76E-04    0.54E-07
 Optimization of the real space projectors (new method)

 maximal supplied QI-value         = 18.90
 optimisation between [QCUT,QGAM] = [ 10.20, 20.41] = [ 29.16,116.64] Ry 
 Optimized for a Real-space Cutoff    1.26 Angstroem

   l    n(q)    QCUT    max X(q) W(low)/X(q) W(high)/X(q)  e(spline) 
   1      7    10.205     2.836    0.17E-03    0.21E-04    0.11E-06
   1      7    10.205     4.023    0.33E-03    0.14E-03    0.24E-06
   2      7    10.205    73.368    0.31E-03    0.79E-03    0.23E-06
   2      7    10.205    69.010    0.31E-03    0.80E-03    0.23E-06
   0      8    10.205    54.797    0.29E-03    0.35E-04    0.49E-07
   0      8    10.205    24.266    0.25E-03    0.34E-04    0.45E-07
 Optimization of the real space projectors (new method)

 maximal supplied QI-value         = 15.12
 optimisation between [QCUT,QGAM] = [ 10.13, 20.41] = [ 28.73,116.64] Ry 
 Optimized for a Real-space Cutoff    1.60 Angstroem

   l    n(q)    QCUT    max X(q) W(low)/X(q) W(high)/X(q)  e(spline) 
   0     10    10.129    11.565    0.27E-04    0.92E-05    0.33E-07
   0     10    10.129    10.214    0.43E-04    0.16E-04    0.67E-07
   1      9    10.129   189.983    0.42E-03    0.33E-03    0.23E-06
   1      9    10.129   193.105    0.42E-03    0.33E-03    0.23E-06
   2      9    10.129   115.941    0.73E-04    0.52E-03    0.39E-06
   2      9    10.129    76.444    0.71E-04    0.51E-03    0.38E-06
 Optimization of the real space projectors (new method)

 maximal supplied QI-value         = 13.42
 optimisation between [QCUT,QGAM] = [ 10.20, 20.39] = [ 29.12,116.47] Ry 
 Optimized for a Real-space Cutoff    1.75 Angstroem

   l    n(q)    QCUT    max X(q) W(low)/X(q) W(high)/X(q)  e(spline) 
   0     11    10.197    13.244    0.28E-04    0.11E-04    0.12E-06
   0     11    10.197    14.240    0.43E-04    0.18E-04    0.22E-06
   1     10    10.197     4.828    0.21E-04    0.12E-04    0.50E-07
   1     10    10.197     3.934    0.58E-04    0.52E-04    0.14E-06
   2     10    10.197    87.714    0.20E-03    0.20E-03    0.30E-06
   2     10    10.197    59.874    0.19E-03    0.20E-03    0.29E-06
 Optimization of the real space projectors (new method)

 maximal supplied QI-value         = 13.42
 optimisation between [QCUT,QGAM] = [ 10.20, 20.39] = [ 29.12,116.47] Ry 
 Optimized for a Real-space Cutoff    1.60 Angstroem

   l    n(q)    QCUT    max X(q) W(low)/X(q) W(high)/X(q)  e(spline) 
   0     10    10.197    13.819    0.14E-04    0.43E-04    0.69E-07
   0     10    10.197     9.993    0.27E-04    0.92E-04    0.14E-06
   1      9    10.197     4.666    0.38E-04    0.50E-04    0.14E-07
   1      9    10.197     4.652    0.19E-03    0.18E-03    0.31E-06
   2      9    10.197    41.448    0.39E-03    0.19E-02    0.97E-06
   2      9    10.197    33.309    0.36E-03    0.18E-02    0.92E-06
  PAW_PBE O 08Apr2002                   :
 energy of atom  1       EATOM= -432.3788
 kinetic energy error for atom=    0.1156 (will be added to EATOM!!)
  PAW_PBE Fe_pv 02Aug2007               :
 energy of atom  2       EATOM=-2457.4239
 kinetic energy error for atom=    0.0364 (will be added to EATOM!!)
  PAW_PBE Fe_pv 02Aug2007               :
 energy of atom  3       EATOM=-2457.4239
 kinetic energy error for atom=    0.0364 (will be added to EATOM!!)
  PAW_PBE Ni_pv 06Sep2000               :
 energy of atom  4       EATOM=-3501.1230
 kinetic energy error for atom=    0.1021 (will be added to EATOM!!)
  PAW_PBE Sr_sv 07Sep2000               :
 energy of atom  5       EATOM= -843.0319
 kinetic energy error for atom=    0.0032 (will be added to EATOM!!)
  PAW_PBE Ba_sv 06Sep2000               :
 energy of atom  6       EATOM= -700.8560
 kinetic energy error for atom=    0.0014 (will be added to EATOM!!)
  PAW_PBE Pr_3 07Sep2000                :
 energy of atom  7       EATOM= -912.8502
 kinetic energy error for atom=    0.0014 (will be added to EATOM!!)
 
 
 POSCAR: ba1 pr1 mn2 o6
  positions in direct lattice
  velocities in cartesian coordinates
 exchange correlation table for  LEXCH =        8
   RHO(1)=    0.500       N(1)  =     2000
   RHO(2)=  100.500       N(2)  =     4000
 


--------------------------------------------------------------------------------------------------------


 ion  position               nearest neighbor table
   1  0.080  0.002  0.386- 122 1.89 118 1.94 173 2.42 150 2.54
   2  0.753  1.000  0.389- 119 1.86 123 1.96 174 2.46 151 2.58
   3  0.082  0.493  0.389- 124 1.89 120 1.98 173 2.44 150 2.57
   4  0.753  0.493  0.385- 121 1.90 125 1.95 174 2.45 151 2.54
   5  0.241  0.984  0.398-  94 1.75 122 1.96 175 2.67 152 2.82
   6  0.592  0.980  0.396- 106 1.78 119 1.98 176 2.54 153 2.82
   7  0.917  0.989  0.389- 123 1.92 118 1.93 177 2.46 154 2.68
   8  0.243  0.504  0.419-  99 1.88 104 1.92 124 2.08 152 3.24
   9  0.583  0.510  0.407- 107 1.90 108 1.94 121 2.20 176 2.84 153 3.02
  10  0.916  0.507  0.390- 125 1.91 120 1.96 177 2.46 154 2.70
  11  0.001  0.244  0.389- 118 1.98 120 2.03 173 2.39 154 2.63
  12  0.671  0.246  0.386- 119 2.01 121 2.01 174 2.49 153 2.59
  13  0.998  0.750  0.393- 118 1.93 120 1.97 177 2.50 150 2.60
  14  0.669  0.745  0.393- 121 1.94 119 1.97 176 2.48 151 2.68
  15  0.163  0.252  0.387- 124 1.97 122 2.02 173 2.43 152 2.61
  16  0.833  0.250  0.391- 125 1.96 123 2.00 174 2.43 154 2.68
  17  0.165  0.744  0.387- 124 1.93 122 2.01 175 2.41 150 2.57
  18  0.836  0.745  0.385- 125 1.96 123 1.99 177 2.42 151 2.47
  19  0.000  0.258  0.154- 126 1.98 134 2.01 146 2.59 180 2.60 161 2.84 155 2.91
  20  0.334  0.258  0.154- 127 1.98 132 2.01 144 2.59 178 2.60 162 2.90 156 2.98
  21  0.667  0.258  0.154- 128 1.98 133 2.01 145 2.59 179 2.60 163 2.84 157 2.90
  22  0.002  0.764  0.170- 129 1.94 137 2.02 161 2.57 180 2.69 155 2.70 146 2.72
  23  0.335  0.764  0.170- 130 1.94 135 2.02 162 2.44 178 2.69 144 2.72 156 2.73
  24  0.668  0.764  0.170- 131 1.94 136 2.02 163 2.55 179 2.69 157 2.71 145 2.72
  25  0.166  0.257  0.173- 126 1.99 132 2.02 147 2.55 164 2.65 181 2.82 158 2.89
  26  0.499  0.257  0.173- 127 1.99 133 2.02 148 2.61 165 2.63 182 2.82 159 2.89
  27  0.832  0.257  0.173- 128 1.99 134 2.02 149 2.59 166 2.66 183 2.82 160 2.89
  28  0.165  0.765  0.159- 129 1.94 135 2.03 181 2.54 164 2.65 158 2.69 147 2.76
  29  0.498  0.765  0.159- 130 1.94 136 2.03 182 2.54 165 2.58 159 2.69 148 2.74
  30  0.831  0.765  0.159- 131 1.94 137 2.03 183 2.54 166 2.67 160 2.69 149 2.72
  31  0.083  0.004  0.166- 129 1.96 126 1.96 147 2.62 161 2.63 181 2.75 146 2.75
  32  0.416  0.004  0.166- 130 1.96 127 1.96 162 2.70 148 2.71 182 2.75 144 2.75
  33  0.749  0.004  0.166- 131 1.96 128 1.96 163 2.58 149 2.71 183 2.75 145 2.75
  34  0.083  0.502  0.164- 126 1.99 129 2.02 164 2.67 180 2.69 158 2.74 155 2.74
  35  0.417  0.502  0.164- 127 1.99 130 2.02 178 2.69 165 2.70 159 2.74 156 2.82
  36  0.750  0.502  0.164- 128 1.99 131 2.02 179 2.69 157 2.71 166 2.72 160 2.74
  37  0.249  0.006  0.161- 132 1.93 135 1.99 181 2.55 162 2.62 144 2.63 147 2.82
  38  0.582  0.006  0.161- 133 1.93 136 1.99 182 2.55 145 2.63 148 2.77 163 2.79
  39  0.916  0.006  0.161- 134 1.93 137 1.99 183 2.55 146 2.63 149 2.73 161 2.76
  40  0.250  0.497  0.166- 132 1.96 135 2.04 164 2.62 178 2.66 158 2.73 156 2.76
  41  0.583  0.497  0.166- 133 1.96 136 2.04 165 2.50 179 2.66 159 2.73 157 2.77
  42  0.916  0.497  0.166- 134 1.96 137 2.04 166 2.60 180 2.66 155 2.72 160 2.73
  43  0.330  0.037  0.011- 170 2.42 144 2.48 139 2.65 141 2.97
  44  0.663  0.037  0.011- 171 2.42 145 2.48 140 2.65 142 2.97
  45  0.996  0.037  0.011- 172 2.42 146 2.48 138 2.65 143 2.97
  46  0.330  0.462  0.018- 178 2.40 170 2.46 139 2.67 141 3.03
  47  0.663  0.462  0.018- 179 2.40 171 2.46 140 2.67 142 3.03
  48  0.996  0.462  0.018- 180 2.40 172 2.46 138 2.67 143 3.03
  49  0.163  0.959  0.016- 181 2.40 167 2.44 141 2.65 138 3.01
  50  0.496  0.959  0.016- 182 2.40 168 2.44 142 2.65 139 3.01
  51  0.829  0.959  0.016- 183 2.40 169 2.44 143 2.65 140 3.01
  52  0.161  0.541  0.008- 167 2.41 158 2.53 141 2.67 138 2.96
  53  0.494  0.541  0.008- 168 2.41 159 2.53 142 2.67 139 2.96
  54  0.828  0.541  0.008- 169 2.41 160 2.53 143 2.67 140 2.96
  55  0.330  0.940  0.312- 115 1.93 110 2.01 162 2.43 175 2.66 152 3.13
  56  0.662  0.965  0.313- 119 2.16 176 2.41 163 2.42 151 2.81 153 2.90
  57  0.997  0.972  0.313- 118 2.14 161 2.37 177 2.63 150 2.70 154 2.92
  58  0.309  0.539  0.324- 114 1.79 175 2.41 156 2.58 152 2.72
  59  0.654  0.521  0.322- 121 1.98 176 2.32 157 2.55 153 2.71 151 3.01
  60  1.000  0.514  0.321- 120 1.96 155 2.50 150 2.65 177 2.67 173 2.86 154 2.88
  61  0.168  0.994  0.317- 122 1.99 147 2.44 175 2.51 152 2.79 150 2.90
  62  0.487  0.024  0.328- 115 1.93 109 2.00 111 2.01 148 2.74 153 2.91
  63  0.829  0.012  0.317- 123 1.99 149 2.44 174 2.55 151 2.75 154 2.81
  64  0.174  0.509  0.312- 124 2.23 164 2.41 175 2.51 152 2.79 150 2.96
  65  0.494  0.488  0.308- 116 2.01 113 2.05 117 2.10 165 2.41 153 2.95
  66  0.830  0.483  0.311- 125 2.14 166 2.36 174 2.66 154 2.82 151 2.83
  67  0.073  0.223  0.248- 161 2.43 173 2.46 147 2.80 155 2.83
  68  0.404  0.183  0.267- 116 1.96 115 1.97 162 2.59 148 2.88 156 3.19
  69  0.736  0.222  0.248- 163 2.34 174 2.46 157 2.74 149 2.98
  70  0.095  0.738  0.239- 129 2.05 164 2.37 150 2.61 147 2.66 155 2.93
  71  0.430  0.735  0.248- 117 1.92 130 2.31 165 2.46 148 2.71 156 2.96
  72  0.760  0.741  0.239- 131 2.04 166 2.46 151 2.56 149 2.71 157 2.87
  73  0.263  0.221  0.237- 132 2.01 162 2.37 152 2.62 156 2.79 147 2.93
  74  0.593  0.222  0.237- 133 2.00 163 2.47 153 2.58 148 2.82 157 2.85
  75  0.929  0.223  0.236- 134 1.96 161 2.38 154 2.59 155 2.78 149 2.86
  76  0.241  0.755  0.243- 135 2.25 175 2.38 164 2.52 147 2.73 162 2.85 156 2.95
  77  0.572  0.746  0.248- 165 2.39 176 2.42 148 2.65 157 3.06
  78  0.905  0.739  0.246- 166 2.37 177 2.48 149 2.68 155 2.97
  79  0.096  0.224  0.089- 126 1.98 181 2.44 138 2.46 158 2.81 146 2.94
  80  0.429  0.224  0.089- 127 1.98 182 2.44 139 2.46 159 2.81 144 2.94
  81  0.762  0.224  0.089- 128 1.98 183 2.44 140 2.46 160 2.81 145 2.94
  82  0.071  0.740  0.082- 167 2.34 180 2.46 146 2.69 158 3.00
  83  0.404  0.740  0.082- 168 2.34 178 2.46 144 2.69 159 3.00
  84  0.737  0.740  0.082- 169 2.34 179 2.46 145 2.69 160 3.00
  85  0.238  0.228  0.081- 170 2.31 181 2.44 158 2.78 144 2.92
  86  0.572  0.228  0.081- 171 2.31 182 2.44 159 2.78 145 2.92
  87  0.905  0.228  0.081- 172 2.31 183 2.44 160 2.78 146 2.92
  88  0.261  0.738  0.087- 135 2.13 178 2.37 141 2.42 144 2.65 158 2.90
  89  0.595  0.738  0.087- 136 2.13 179 2.37 142 2.42 145 2.65 159 2.90
  90  0.928  0.738  0.087- 137 2.13 180 2.37 143 2.42 146 2.65 160 2.90
  91  0.356  0.844  0.488-  93 2.41 105 2.42  95 2.42  94 2.43 103 2.47 104 2.47 101 2.60  96 2.67

  92  0.478  0.847  0.489-  95 2.40  93 2.40 105 2.41 108 2.43 106 2.43 103 2.50 102 2.60  97 2.65

  93  0.417  0.010  0.438- 112 2.36  92 2.40 111 2.41  91 2.41  96 2.42  97 2.44 109 2.45 103 2.61
                           110 2.61  98 2.73  94 2.74
  94  0.302  0.011  0.432-   5 1.75 112 2.43  91 2.43  96 2.47 110 2.49  99 2.68 104 2.68  93 2.74
                           152 3.64
  95  0.417  0.013  0.539-  96 2.39  97 2.39  92 2.40  91 2.42 105 2.62 100 2.66
  96  0.358  0.181  0.489-  95 2.39  93 2.42 100 2.42  99 2.42  98 2.46  94 2.47 101 2.64  91 2.67

  97  0.477  0.182  0.490-  95 2.39 100 2.40 107 2.41 106 2.42  93 2.44  98 2.44  92 2.65 102 2.66

  98  0.419  0.356  0.437- 112 2.34 102 2.40 111 2.42 101 2.42  97 2.44  96 2.46 113 2.50 103 2.57
                           114 2.63  93 2.73 107 2.79
  99  0.299  0.350  0.436-   8 1.88  96 2.42 101 2.44 112 2.48 104 2.56  94 2.68 114 2.70 152 3.31

 100  0.417  0.350  0.540- 101 2.39  97 2.40 102 2.41  96 2.42 105 2.63  95 2.66
 101  0.358  0.515  0.490- 100 2.39 105 2.39  98 2.42  99 2.44 104 2.46 103 2.47  91 2.60  96 2.64

 102  0.477  0.519  0.489- 105 2.39  98 2.40 100 2.41 107 2.43 108 2.47 103 2.47  92 2.60  97 2.66

 103  0.417  0.680  0.434- 109 2.44  91 2.47 102 2.47 101 2.47 113 2.49  92 2.50 110 2.53  98 2.57
                           114 2.60  93 2.61
 104  0.298  0.673  0.433-   8 1.92 101 2.46  91 2.47  99 2.56 110 2.58 114 2.66  94 2.68 175 3.35

 105  0.417  0.682  0.540- 101 2.39 102 2.39  92 2.41  91 2.42  95 2.62 100 2.63
 106  0.536  0.018  0.437-   6 1.78  97 2.42  92 2.43 111 2.43 109 2.55 107 2.60 108 2.61 153 3.71

 107  0.536  0.347  0.438-   9 1.90  97 2.41 102 2.43 113 2.47 111 2.49 106 2.60 108 2.69  98 2.79
                           153 3.36
 108  0.537  0.687  0.435-   9 1.94  92 2.43 113 2.44 102 2.47 109 2.54 106 2.61 107 2.69 176 3.22

 109  0.473  0.852  0.379-  62 2.00 103 2.44 117 2.45  93 2.45 108 2.54 106 2.55 111 2.58 115 2.64
                           113 2.66 110 2.71 176 3.25
 110  0.359  0.844  0.374-  55 2.01 115 2.34  94 2.49 103 2.53 104 2.58  93 2.61 114 2.63 109 2.71
                           112 2.72 117 2.74 175 3.23
 111  0.474  0.177  0.384-  62 2.01  93 2.41  98 2.42 106 2.43 116 2.47 107 2.49 112 2.56 109 2.58
                           113 2.69 115 2.71 153 3.13
 112  0.366  0.185  0.385-  98 2.34  93 2.36  94 2.43 115 2.45  99 2.48 111 2.56 114 2.62 116 2.66
                           110 2.72 152 3.20
 113  0.480  0.517  0.380-  65 2.05 108 2.44 107 2.47 103 2.49  98 2.50 117 2.51 116 2.57 109 2.66
                           111 2.69 153 3.59
 114  0.362  0.512  0.369-  58 1.79 116 2.54 103 2.60 112 2.62  98 2.63 110 2.63 117 2.64 104 2.66
                            99 2.70 152 3.57
 115  0.407  0.018  0.320-  55 1.93  62 1.93  68 1.97 110 2.34 112 2.45 116 2.55 109 2.64 111 2.71
                           117 2.75 162 3.21 148 3.34
 116  0.428  0.335  0.319-  68 1.96  65 2.01 111 2.47 114 2.54 115 2.55 113 2.57 112 2.66 117 2.73
                           156 3.52
 117  0.433  0.679  0.315-  71 1.92  65 2.10 109 2.45 113 2.51 114 2.64 116 2.73 110 2.74 115 2.75
                           165 3.26 156 3.55 148 3.79
 118  0.998  0.994  0.389-   7 1.93  13 1.93   1 1.94  11 1.98  57 2.14 177 3.10 173 3.17 150 3.18
                           154 3.26
 119  0.675  0.993  0.389-   2 1.86  14 1.97   6 1.98  12 2.01  56 2.16 176 3.15 151 3.16 174 3.18
                           153 3.37
 120  0.998  0.501  0.391-  60 1.96  10 1.96  13 1.97   3 1.98  11 2.03 177 3.14 173 3.18 150 3.20
                           154 3.29
 121  0.673  0.499  0.390-   4 1.90  14 1.94  59 1.98  12 2.01   9 2.20 176 3.19 151 3.24 174 3.25
                           153 3.37
 122  0.159  0.997  0.388-   1 1.89   5 1.96  61 1.99  17 2.01  15 2.02 173 3.11 175 3.15 150 3.16
                           152 3.33
 123  0.836  0.997  0.388-   7 1.92   2 1.96  63 1.99  18 1.99  16 2.00 174 3.09 177 3.18 151 3.18
                           154 3.24
 124  0.161  0.500  0.391-   3 1.89  17 1.93  15 1.97   8 2.08  64 2.23 173 3.18 150 3.22 175 3.25
                           152 3.37
 125  0.835  0.497  0.387-  10 1.91   4 1.95  16 1.96  18 1.96  66 2.14 174 3.12 177 3.17 151 3.19
                           154 3.22
 126  0.084  0.251  0.159-  31 1.96  19 1.98  79 1.98  34 1.99  25 1.99 181 3.22 158 3.32 146 3.32
                           161 3.34 147 3.37 155 3.46
 127  0.417  0.251  0.159-  32 1.96  20 1.98  80 1.98  35 1.99  26 1.99 182 3.22 159 3.32 144 3.32
                           148 3.47 156 3.54
 128  0.750  0.251  0.159-  33 1.96  21 1.98  81 1.98  36 1.99  27 1.99 183 3.22 163 3.31 160 3.32
                           145 3.32 157 3.43 149 3.46
 129  0.083  0.757  0.167-  22 1.94  28 1.94  31 1.96  34 2.02  70 2.05 164 3.14 147 3.25 180 3.28
                           161 3.32 146 3.36 155 3.36 158 3.44
 130  0.417  0.757  0.167-  23 1.94  29 1.94  32 1.96  35 2.02  71 2.31 165 3.15 178 3.28 148 3.29
                           162 3.30 144 3.36 156 3.40 159 3.44
 131  0.750  0.757  0.167-  24 1.94  30 1.94  33 1.96  36 2.02  72 2.04 166 3.19 179 3.28 163 3.28
                           149 3.29 157 3.34 145 3.36 160 3.44
 132  0.250  0.250  0.167-  37 1.93  40 1.96  73 2.01  20 2.01  25 2.02 162 3.20 181 3.27 147 3.35
                           144 3.37 156 3.40 158 3.41
 133  0.584  0.250  0.167-  38 1.93  41 1.96  74 2.00  21 2.01  26 2.02 163 3.26 182 3.27 148 3.34
                           165 3.35 145 3.37 157 3.38 159 3.41
 134  0.917  0.250  0.167-  39 1.93  42 1.96  75 1.96  19 2.01  27 2.02 161 3.23 183 3.27 149 3.31
                           155 3.35 146 3.37 160 3.41
 135  0.250  0.754  0.163-  37 1.99  23 2.02  28 2.03  40 2.04  88 2.13  76 2.25 178 3.14 164 3.19
                           162 3.21 144 3.26 158 3.33 147 3.43 156 3.44
 136  0.583  0.754  0.163-  38 1.99  24 2.02  29 2.03  41 2.04  89 2.13 165 3.07 179 3.14 145 3.26
                           159 3.33 148 3.36 157 3.46
 137  0.917  0.754  0.163-  39 1.99  22 2.02  30 2.03  42 2.04  90 2.13 180 3.14 166 3.18 146 3.26
                           149 3.33 160 3.33 155 3.41
 138  0.082  0.250  0.003-  79 2.46  45 2.65  48 2.67  52 2.96  49 3.01 172 3.76 158 3.90 146 3.90
                           181 3.91 167 3.93 167 3.98 180 4.06 170 4.15
 139  0.416  0.250  0.003-  80 2.46  43 2.65  46 2.67  53 2.96  50 3.01 170 3.76 159 3.90 144 3.90
                           182 3.91 168 3.93 168 3.98 178 4.06 171 4.15
 140  0.749  0.250  0.003-  81 2.46  44 2.65  47 2.67  54 2.96  51 3.01 171 3.76 160 3.90 145 3.90
                           183 3.91 169 3.93 169 3.98 179 4.06 172 4.15
 141  0.249  0.752  0.002-  88 2.42  49 2.65  52 2.67  43 2.97  46 3.03 167 3.80 158 3.83 178 3.83
                           144 3.87 170 3.93 181 3.93 170 3.99 168 4.11
 142  0.582  0.752  0.002-  89 2.42  50 2.65  53 2.67  44 2.97  47 3.03 168 3.80 159 3.83 179 3.83
                           145 3.87 171 3.93 182 3.93 171 3.99 169 4.11
 143  0.915  0.752  0.002-  90 2.42  51 2.65  54 2.67  45 2.97  48 3.03 169 3.80 160 3.83 180 3.83
                           146 3.87 172 3.93 183 3.93 172 3.99 167 4.11
 144  0.332  0.996  0.099-  43 2.48  20 2.59  37 2.63  88 2.65  83 2.69  23 2.72  32 2.75  85 2.92
                            80 2.94 135 3.26 127 3.32 130 3.36 132 3.37 162 3.59 178 3.69 170 3.84
 145  0.665  0.996  0.099-  44 2.48  21 2.59  38 2.63  89 2.65  84 2.69  24 2.72  33 2.75  86 2.92
                            81 2.94 136 3.26 128 3.32 131 3.36 133 3.37 163 3.63 179 3.69 171 3.84
 146  0.998  0.996  0.099-  45 2.48  19 2.59  39 2.63  90 2.65  82 2.69  22 2.72  31 2.75  87 2.92
                            79 2.94 137 3.26 126 3.32 129 3.36 134 3.37 161 3.65 180 3.69 172 3.84
 147  0.163  0.004  0.230-  61 2.44  25 2.55  31 2.62  70 2.66  76 2.73  28 2.76  67 2.80  37 2.82
                            73 2.93 129 3.25 132 3.35 126 3.37 135 3.43 181 3.63 164 3.73 175 3.80
 148  0.500  0.998  0.231-  26 2.61  77 2.65  71 2.71  32 2.71  62 2.74  29 2.74  38 2.77  74 2.82
                            68 2.88 130 3.29 133 3.34 115 3.34 136 3.36 127 3.47 165 3.66 182 3.66
 149  0.835  0.998  0.230-  63 2.44  27 2.59  78 2.68  33 2.71  72 2.71  30 2.72  39 2.73  75 2.86
                            69 2.98 131 3.29 134 3.31 137 3.33 128 3.46 183 3.63 166 3.68 154 3.89
 150  0.079  0.747  0.331-   1 2.54  17 2.57   3 2.57  13 2.60  70 2.61  60 2.65  57 2.70  61 2.90
                            64 2.96 122 3.16 118 3.18 120 3.20 124 3.22 175 3.76 177 3.80 155 3.88
 151  0.754  0.750  0.330-  18 2.47   4 2.54  72 2.56   2 2.58  14 2.68  63 2.75  56 2.81  66 2.83
                            59 3.01 119 3.16 123 3.18 125 3.19 121 3.24 176 3.81 166 3.86 174 3.89
 152  0.249  0.246  0.330-  15 2.61  73 2.62  58 2.72  61 2.79  64 2.79   5 2.82  55 3.13 112 3.20
                             8 3.24  99 3.31 122 3.33 124 3.37 114 3.57  94 3.64 175 3.88 156 3.89
 153  0.585  0.246  0.329-  74 2.58  12 2.59  59 2.71   6 2.82  56 2.90  62 2.91  65 2.95   9 3.02
                           111 3.13 107 3.36 121 3.37 119 3.37 113 3.59 106 3.71 163 3.91 157 3.91
 154  0.917  0.248  0.328-  75 2.59  11 2.63   7 2.68  16 2.68  10 2.70  63 2.81  66 2.82  60 2.88
                            57 2.92 125 3.22 123 3.24 118 3.26 120 3.29 174 3.81 173 3.86 161 3.87
 155  0.000  0.502  0.232-  60 2.50  22 2.70  42 2.72  34 2.74  75 2.78  67 2.83  19 2.91  70 2.93
                            78 2.97 134 3.35 129 3.36 137 3.41 126 3.46 180 3.67 161 3.85 150 3.88
 156  0.333  0.505  0.235-  58 2.58  23 2.73  40 2.76  73 2.79  35 2.82  76 2.95  71 2.96  20 2.98
                            68 3.19 132 3.40 130 3.40 135 3.44 116 3.52 127 3.54 117 3.55 178 3.75
 157  0.669  0.500  0.232-  59 2.55  36 2.71  24 2.71  69 2.74  41 2.77  74 2.85  72 2.87  21 2.90
                            77 3.06 131 3.34 133 3.38 128 3.43 136 3.46 179 3.68 163 3.85 176 3.87
 158  0.168  0.504  0.097-  52 2.53  28 2.69  40 2.73  34 2.74  85 2.78  79 2.81  25 2.89  88 2.90
                            82 3.00 126 3.32 135 3.33 132 3.41 129 3.44 164 3.64 141 3.83 167 3.85
 159  0.501  0.504  0.097-  53 2.53  29 2.69  41 2.73  35 2.74  86 2.78  80 2.81  26 2.89  89 2.90
                            83 3.00 127 3.32 136 3.33 133 3.41 130 3.44 165 3.56 142 3.83 168 3.85
 160  0.835  0.504  0.097-  54 2.53  30 2.69  42 2.73  36 2.74  87 2.78  81 2.81  27 2.89  90 2.90
                            84 3.00 128 3.32 137 3.33 134 3.41 131 3.44 166 3.66 143 3.83 169 3.85
 161  0.001  0.015  0.229-  57 2.37  75 2.38  67 2.43  22 2.57  31 2.63  39 2.76  19 2.84 134 3.23
                           129 3.32 126 3.34 146 3.65 155 3.85 147 3.85 154 3.87 149 3.94 150 4.03
 162  0.328  0.997  0.227-  73 2.37  55 2.43  23 2.44  68 2.59  37 2.62  32 2.70  76 2.85  20 2.90
                           132 3.20 135 3.21 115 3.21 130 3.30 144 3.59 156 3.90 147 3.91 152 3.95
 163  0.669  0.014  0.228-  69 2.34  56 2.42  74 2.47  24 2.55  33 2.58  38 2.79  21 2.84 133 3.26
                           131 3.28 128 3.31 145 3.63 157 3.85 153 3.91 149 3.92 148 4.01 151 4.06
 164  0.167  0.533  0.227-  70 2.37  64 2.41  76 2.52  40 2.62  25 2.65  28 2.65  34 2.67 129 3.14
                           135 3.19 158 3.64 147 3.73 175 3.73 156 3.95 150 3.96 155 3.96 152 4.15
 165  0.505  0.536  0.224-  77 2.39  65 2.41  71 2.46  41 2.50  29 2.58  26 2.63  35 2.70 136 3.07
                           130 3.15 117 3.26 133 3.35 159 3.56 148 3.66 157 3.93 156 4.09 153 4.19
 166  0.836  0.532  0.228-  66 2.36  78 2.37  72 2.46  42 2.60  27 2.66  30 2.67  36 2.72 137 3.18
                           131 3.19 160 3.66 149 3.68 151 3.86 155 3.91 157 3.95 154 4.08 149 4.23
 167  0.088  0.753  0.000-  82 2.34  52 2.41  49 2.44 141 3.80 158 3.85 138 3.93 146 3.98 138 3.98
                           143 4.11
 168  0.422  0.753  0.000-  83 2.34  53 2.41  50 2.44 142 3.80 159 3.85 139 3.93 144 3.98 139 3.98
                           141 4.11
 169  0.755  0.753  0.000-  84 2.34  54 2.41  51 2.44 143 3.80 160 3.85 140 3.93 145 3.98 140 3.98
                           142 4.11
 170  0.257  0.248  0.000-  85 2.31  43 2.42  46 2.46 139 3.76 144 3.84 141 3.93 141 3.99 158 4.00
                           138 4.15
 171  0.591  0.248  0.000-  86 2.31  44 2.42  47 2.46 140 3.76 145 3.84 142 3.93 142 3.99 159 4.00
                           139 4.15
 172  0.924  0.248  0.000-  87 2.31  45 2.42  48 2.46 138 3.76 146 3.84 143 3.93 143 3.99 160 4.00
                           140 4.15
 173  0.080  0.249  0.335-  11 2.39   1 2.42  15 2.43   3 2.44  67 2.46  60 2.86 122 3.11 118 3.17
                           120 3.18 124 3.18 154 3.86 150 3.93 150 3.98 155 3.99 152 4.02 147 4.04
 174  0.757  0.242  0.334-  16 2.43   4 2.45  69 2.46   2 2.46  12 2.49  63 2.55  66 2.66 123 3.09
                           125 3.12 119 3.18 121 3.25 154 3.81 151 3.89 149 3.95 151 4.02 153 4.06
 175  0.238  0.757  0.328-  76 2.38  58 2.41  17 2.41  61 2.51  64 2.51  55 2.66   5 2.67 122 3.15
                           110 3.23 124 3.25 104 3.35 164 3.73 150 3.76 147 3.80 152 3.88 156 3.97
 176  0.594  0.751  0.332-  59 2.32  56 2.41  77 2.42  14 2.48   6 2.54   9 2.84 119 3.15 121 3.19
                           108 3.22 109 3.25 151 3.81 157 3.87 153 3.92 153 4.00 148 4.08
 177  0.919  0.747  0.334-  18 2.42   7 2.46  10 2.46  78 2.48  13 2.50  57 2.63  60 2.67 118 3.10
                           120 3.14 125 3.17 123 3.18 150 3.80 151 3.92 155 3.96 154 3.96 154 3.96
 178  0.331  0.529  0.101-  88 2.37  46 2.40  83 2.46  20 2.60  40 2.66  23 2.69  35 2.69 135 3.14
                           130 3.28 144 3.69 156 3.75 141 3.83 158 3.87 159 4.04 139 4.06 144 4.22
 179  0.664  0.529  0.101-  89 2.37  47 2.40  84 2.46  21 2.60  41 2.66  24 2.69  36 2.69 136 3.14
                           131 3.28 157 3.68 145 3.69 142 3.83 159 3.87 160 4.04 140 4.06 145 4.22
 180  0.998  0.529  0.101-  90 2.37  48 2.40  82 2.46  19 2.60  42 2.66  22 2.69  34 2.69 137 3.14
                           129 3.28 155 3.67 146 3.69 143 3.83 160 3.87 158 4.04 138 4.06 146 4.22
 181  0.169  0.012  0.101-  49 2.40  79 2.44  85 2.44  28 2.54  37 2.55  31 2.75  25 2.82 126 3.22
                           132 3.27 147 3.63 144 3.86 158 3.89 138 3.91 141 3.93 158 4.02 146 4.05
 182  0.502  0.012  0.101-  50 2.40  80 2.44  86 2.44  29 2.54  38 2.55  32 2.75  26 2.82 127 3.22
                           133 3.27 148 3.66 145 3.86 159 3.89 139 3.91 142 3.93 159 4.02 144 4.05
 183  0.836  0.012  0.101-  51 2.40  81 2.44  87 2.44  30 2.54  39 2.55  33 2.75  27 2.82 128 3.22
                           134 3.27 149 3.63 146 3.86 160 3.89 140 3.91 143 3.93 160 4.02 145 4.05
 
  LATTYP: Found a simple orthorhombic cell.
 ALAT       =     7.9067120552
 B/A-ratio  =     2.9993878146
 C/A-ratio  =     3.5412950168
  
  Lattice vectors:
  
 A1 = (   0.0000000000,  -7.9067120552,   0.0000000000)
 A2 = (  23.7152957916,   0.0000000000,   0.0000000000)
 A3 = (   0.0000000000,   0.0000000000,  28.0000000000)


Analysis of symmetry for initial positions (statically):
=====================================================================
 Subroutine PRICEL returns:
 Original cell was already a primitive cell.
 

 Routine SETGRP: Setting up the symmetry group for a 
 simple orthorhombic supercell.


 Subroutine GETGRP returns: Found  1 space group operations
 (whereof  1 operations were pure point group operations)
 out of a pool of  8 trial point group operations.


The static configuration has the point symmetry C_1 .


Analysis of symmetry for dynamics (positions and initial velocities):
=====================================================================
 Subroutine PRICEL returns:
 Original cell was already a primitive cell.
 

 Routine SETGRP: Setting up the symmetry group for a 
 simple orthorhombic supercell.


 Subroutine GETGRP returns: Found  1 space group operations
 (whereof  1 operations were pure point group operations)
 out of a pool of  8 trial point group operations.


The dynamic configuration has the point symmetry C_1 .


Analysis of constrained symmetry for selective dynamics:
=====================================================================
 Subroutine PRICEL returns:
 Original cell was already a primitive cell.
 

 Routine SETGRP: Setting up the symmetry group for a 
 simple orthorhombic supercell.


 Subroutine GETGRP returns: Found  1 space group operations
 (whereof  1 operations were pure point group operations)
 out of a pool of  8 trial point group operations.


The constrained configuration has the point symmetry C_1 .


Analysis of structural, dynamic, and magnetic symmetry:
=====================================================================
 Subroutine PRICEL returns:
 Original cell was already a primitive cell.
 

 Routine SETGRP: Setting up the symmetry group for a 
 simple orthorhombic supercell.


 Subroutine GETGRP returns: Found  1 space group operations
 (whereof  1 operations were pure point group operations)
 out of a pool of  8 trial point group operations.


The overall configuration has the point symmetry C_1 .


 Subroutine INISYM returns: Found  1 space group operations
 (whereof  1 operations are pure point group operations),
 and found     1 'primitive' translations


----------------------------------------------------------------------------------------

                                     Primitive cell                                     

  volume of cell :    5250.2804

  direct lattice vectors                    reciprocal lattice vectors
    23.715295792  0.000000000  0.000000000     0.042166879  0.000000000  0.000000000
     0.000000000  7.906712055  0.000000000     0.000000000  0.126474822  0.000000000
     0.000000000  0.000000000 28.000000000     0.000000000  0.000000000  0.035714286

  length of vectors
    23.715295792  7.906712055 28.000000000     0.042166879  0.126474822  0.035714286

  position of ions in fractional coordinates (direct lattice)
     0.079738421  0.002284787  0.386220929
     0.753135267  0.999993033  0.389171395
     0.081625315  0.493430112  0.388761717
     0.752993473  0.493272512  0.384682269
     0.240749054  0.984295931  0.397981340
     0.591529556  0.979733368  0.395512207
     0.916627044  0.988615531  0.389229561
     0.242609222  0.504278718  0.419185500
     0.582605254  0.509851932  0.406828239
     0.915756426  0.507067446  0.390015349
     0.001413358  0.243928934  0.388919734
     0.671416183  0.246061334  0.385769290
     0.997982850  0.750440903  0.393308870
     0.669264238  0.744509123  0.393404105
     0.162505009  0.252034794  0.386716562
     0.833024111  0.250199901  0.391418072
     0.164737068  0.743622553  0.387491118
     0.836331917  0.745233944  0.384571025
     0.000462990  0.258366560  0.154063570
     0.333796380  0.258366560  0.154063570
     0.667129780  0.258366560  0.154063570
     0.001634810  0.764011630  0.170280360
     0.334968200  0.764011630  0.170280360
     0.668301590  0.764011630  0.170280360
     0.165618430  0.256913360  0.173474640
     0.498951820  0.256913360  0.173474640
     0.832285210  0.256913360  0.173474640
     0.164826530  0.765257410  0.158568570
     0.498159500  0.765257410  0.158568570
     0.831492900  0.765257410  0.158568570
     0.082706960  0.004494920  0.165908930
     0.416040350  0.004494920  0.165908930
     0.749373740  0.004494920  0.165908930
     0.083301930  0.501811620  0.163628210
     0.416635330  0.501811620  0.163628210
     0.749968300  0.501811620  0.163628210
     0.249160290  0.006388240  0.161093210
     0.582493680  0.006388240  0.161093210
     0.915827080  0.006388240  0.161093210
     0.249778040  0.497056170  0.165643930
     0.583111430  0.497056170  0.165643930
     0.916444820  0.497056170  0.165643930
     0.329812460  0.036615730  0.010695000
     0.663145850  0.036615730  0.010695000
     0.996479240  0.036615730  0.010695000
     0.329795590  0.461535710  0.017640360
     0.663128560  0.461535710  0.017640360
     0.996461950  0.461535710  0.017640360
     0.162713130  0.959110430  0.016143570
     0.496046100  0.959110430  0.016143570
     0.829379490  0.959110430  0.016143570
     0.160897850  0.540633070  0.007546790
     0.494231240  0.540633070  0.007546790
     0.827564630  0.540633070  0.007546790
     0.330181523  0.939739770  0.312164253
     0.662283244  0.965456951  0.313322658
     0.996913233  0.971758375  0.312521252
     0.308873390  0.538946237  0.324302136
     0.653544284  0.521064626  0.322072852
     0.999548516  0.514376273  0.321048205
     0.168394217  0.993678339  0.317072659
     0.487359346  0.024368315  0.328212913
     0.829193072  0.011768428  0.316987465
     0.173617716  0.509416270  0.312423970
     0.494144502  0.488424939  0.308488919
     0.830036661  0.482580109  0.310541623
     0.072560936  0.222908450  0.247937394
     0.404493664  0.182533583  0.267104181
     0.735949083  0.221659595  0.247835082
     0.095138285  0.737690519  0.238974948
     0.430175336  0.734623334  0.248230075
     0.759536497  0.740899001  0.238869326
     0.262695531  0.221089805  0.237062147
     0.592596591  0.222496919  0.237186728
     0.928605493  0.223062600  0.235693061
     0.240960538  0.754626971  0.242673585
     0.571535085  0.746224458  0.247553185
     0.904877003  0.738627619  0.246431094
     0.095817060  0.224142470  0.089276430
     0.429150030  0.224142470  0.089276430
     0.762483430  0.224142470  0.089276430
     0.070678860  0.739820800  0.082453930
     0.404012250  0.739820800  0.082453930
     0.737345640  0.739820800  0.082453930
     0.238255510  0.227877280  0.080762500
     0.571588910  0.227877280  0.080762500
     0.904921880  0.227877280  0.080762500
     0.261422840  0.737800990  0.087367140
     0.594755810  0.737800990  0.087367140
     0.928089200  0.737800990  0.087367140
     0.356265380  0.844337620  0.488483550
     0.477602200  0.847223290  0.489297190
     0.417110120  0.009723900  0.437888400
     0.301807730  0.011493210  0.432059080
     0.416786430  0.013498280  0.539148010
     0.357882150  0.181463450  0.488665380
     0.476838690  0.182385130  0.489649970
     0.418542160  0.355504200  0.436828390
     0.299420530  0.349582430  0.435920590
     0.417457460  0.350124010  0.540344220
     0.358022440  0.515476190  0.489869750
     0.477204010  0.518516280  0.489435520
     0.416885460  0.680358470  0.433829760
     0.298437240  0.672942250  0.433279900
     0.417338120  0.682298500  0.540385330
     0.535889660  0.017812880  0.436581550
     0.536116350  0.346699400  0.437615020
     0.536970820  0.687263490  0.435076210
     0.473075040  0.851900330  0.379143020
     0.358843850  0.844143200  0.373992920
     0.473532120  0.177336750  0.384424120
     0.365555020  0.185103810  0.385246130
     0.480373060  0.516611260  0.380351010
     0.361683220  0.511673880  0.369473520
     0.406624500  0.018261110  0.320032980
     0.427968080  0.334811430  0.318767080
     0.432882210  0.679350270  0.314892900
     0.997905085  0.993994548  0.388570226
     0.674541990  0.992610974  0.389330323
     0.998346543  0.500826113  0.390779122
     0.673325526  0.499460540  0.390407179
     0.159237549  0.996777484  0.387758398
     0.835702984  0.997297103  0.387681123
     0.161312586  0.500204629  0.391261866
     0.835230118  0.497197074  0.386566837
     0.083588670  0.251292820  0.158928570
     0.416922060  0.251292820  0.158928570
     0.750255030  0.251292820  0.158928570
     0.083439400  0.756677360  0.166717500
     0.416772790  0.756677360  0.166717500
     0.750106180  0.756677360  0.166717500
     0.250281930  0.249748570  0.166626430
     0.583615320  0.249748570  0.166626430
     0.916948290  0.249748570  0.166626430
     0.250121700  0.754479230  0.162672140
     0.583455090  0.754479230  0.162672140
     0.916788480  0.754479230  0.162672140
     0.082376370  0.249577830  0.002528570
     0.415709760  0.249577830  0.002528570
     0.749043160  0.249577830  0.002528570
     0.248655130  0.752012970  0.001768210
     0.581988520  0.752012970  0.001768210
     0.915321920  0.752012970  0.001768210
     0.331759300  0.995920930  0.098675000
     0.665092700  0.995920930  0.098675000
     0.998426090  0.995920930  0.098675000
     0.162873129  0.004087495  0.230222590
     0.500369124  0.997825943  0.231221172
     0.834664184  0.997815997  0.230183981
     0.079380554  0.746511320  0.331229862
     0.754267787  0.750373976  0.330101607
     0.249257693  0.245721893  0.329592083
     0.585475492  0.246148439  0.328736202
     0.917148255  0.247609733  0.327594200
     0.000221034  0.501597814  0.231825661
     0.332790634  0.504557430  0.234845160
     0.669399868  0.499715989  0.232141447
     0.168075910  0.503784630  0.097170710
     0.501408880  0.503784630  0.097170710
     0.834742280  0.503784630  0.097170710
     0.000663964  0.015203032  0.228781777
     0.327861778  0.997350335  0.226851202
     0.669473158  0.013521887  0.228251838
     0.166895980  0.533018457  0.226889323
     0.504542869  0.536287804  0.223962911
     0.835690445  0.532478357  0.227751624
     0.088463160  0.752889440  0.000301430
     0.421796550  0.752889440  0.000301430
     0.755129940  0.752889440  0.000301430
     0.257306510  0.248166370  0.000003570
     0.590639900  0.248166370  0.000003570
     0.923973300  0.248166370  0.000003570
     0.079754166  0.249231079  0.335414646
     0.756620434  0.241866989  0.333824253
     0.237810514  0.756597206  0.327661481
     0.593696913  0.750824689  0.332016161
     0.919351024  0.747387787  0.334041531
     0.331133970  0.528980940  0.101103210
     0.664467360  0.528980940  0.101103210
     0.997800750  0.528980940  0.101103210
     0.168939910  0.011596480  0.100543210
     0.502272880  0.011596480  0.100543210
     0.835606280  0.011596480  0.100543210

  ion indices of the primitive-cell ions
   primitive index   ion index
                 1           1
                 2           2
                 3           3
                 4           4
                 5           5
                 6           6
                 7           7
                 8           8
                 9           9
                10          10
                11          11
                12          12
                13          13
                14          14
                15          15
                16          16
                17          17
                18          18
                19          19
                20          20
                21          21
                22          22
                23          23
                24          24
                25          25
                26          26
                27          27
                28          28
                29          29
                30          30
                31          31
                32          32
                33          33
                34          34
                35          35
                36          36
                37          37
                38          38
                39          39
                40          40
                41          41
                42          42
                43          43
                44          44
                45          45
                46          46
                47          47
                48          48
                49          49
                50          50
                51          51
                52          52
                53          53
                54          54
                55          55
                56          56
                57          57
                58          58
                59          59
                60          60
                61          61
                62          62
                63          63
                64          64
                65          65
                66          66
                67          67
                68          68
                69          69
                70          70
                71          71
                72          72
                73          73
                74          74
                75          75
                76          76
                77          77
                78          78
                79          79
                80          80
                81          81
                82          82
                83          83
                84          84
                85          85
                86          86
                87          87
                88          88
                89          89
                90          90
                91          91
                92          92
                93          93
                94          94
                95          95
                96          96
                97          97
                98          98
                99          99
               100         100
               101         101
               102         102
               103         103
               104         104
               105         105
               106         106
               107         107
               108         108
               109         109
               110         110
               111         111
               112         112
               113         113
               114         114
               115         115
               116         116
               117         117
[...]
      6.10210      1.96218      0.00010         1.411735     -0.337705      2.342424
     14.00720      1.96218      0.00010         1.501303     -0.348107      2.238442
     21.91230      1.96218      0.00010         1.432512     -0.366579      2.429898
      1.88934      1.97056      9.39162        -0.016638     -0.005205      0.001213
     17.94459      1.91243      9.34698        -0.005584     -0.006458      0.005938
      5.63203      5.98274      9.17249        -0.003909      0.002889     -0.008309
     14.08206      5.93589      9.29220        -0.018909     -0.001669     -0.011386
     21.80224      5.90870      9.35370        -0.002125     -0.000046      0.000960
      7.85294      4.18250      2.83089         0.112665     -0.104779      1.221839
     15.75804      4.18250      2.83089         0.147063     -0.239695      1.226225
     23.66314      4.18250      2.83089        -0.073319     -0.265918      1.383487
      4.00646      0.09169      2.81521        -0.257893     -0.243552      1.193379
     11.91155      0.09169      2.81521        -0.180553     -0.252272      1.109241
     19.81665      0.09169      2.81521        -0.036549     -0.212839      1.387290
 -----------------------------------------------------------------------------------
    total drift:                               -0.092703      0.036642      0.023581


--------------------------------------------------------------------------------------------------------



  FREE ENERGIE OF THE ION-ELECTRON SYSTEM (eV)
  ---------------------------------------------------
  free  energy   TOTEN  =     -1272.54522890 eV

  energy  without entropy=    -1272.49635027  energy(sigma->0) =    -1272.52078959
 
 d Force = 0.7918744E-03[ 0.145E-03, 0.144E-02]  d Energy = 0.2407873E-03 0.551E-03
 d Force = 0.1406379E+01[ 0.138E+01, 0.143E+01]  d Ewald  = 0.1406365E+01 0.132E-04


--------------------------------------------------------------------------------------------------------


    POTLOK:  cpu time    0.4937: real time    0.4938


--------------------------------------------------------------------------------------------------------


 Conjugate gradient step on ions:
 trial-energy change:   -0.000241  1 .order   -0.000792   -0.001439   -0.000145
  (g-gl).g = 0.104E-02      g.g   = 0.125E-02  gl.gl    = 0.307E-02
 g(Force)  = 0.125E-02   g(Stress)= 0.000E+00 ortho     = 0.210E-03
 gamma     =   0.33996
 trial     =   1.08775
 opt step  =   1.20922  (harmonic =   1.20922) maximal distance =0.00278411
 next E    = -1272.545788   (d E  =  -0.00080)


--------------------------------------------------------------------------------------------------------


  
 reached required accuracy - stopping structural energy minimisation
     LOOP+:  cpu time  202.6847: real time  202.9485
    4ORBIT:  cpu time    0.0000: real time    0.0000



 total charge

# of ion       s       p       d       tot
------------------------------------------
    1        1.588   3.491   0.000   5.079
    2        1.589   3.481   0.000   5.070
    3        1.588   3.475   0.000   5.063
    4        1.588   3.483   0.000   5.071
    5        1.597   3.449   0.000   5.045
    6        1.596   3.452   0.000   5.048
    7        1.591   3.466   0.000   5.057
    8        1.589   3.431   0.000   5.020
    9        1.590   3.422   0.000   5.011
   10        1.591   3.458   0.000   5.048
   11        1.589   3.450   0.000   5.039
   12        1.586   3.452   0.000   5.038
   13        1.589   3.448   0.000   5.037
   14        1.587   3.456   0.000   5.044
   15        1.587   3.462   0.000   5.049
   16        1.590   3.445   0.000   5.035
   17        1.587   3.472   0.000   5.059
   18        1.589   3.461   0.000   5.051
   19        1.583   3.482   0.000   5.065
   20        1.584   3.473   0.000   5.056
   21        1.583   3.482   0.000   5.065
   22        1.582   3.489   0.000   5.071
   23        1.582   3.497   0.000   5.080
   24        1.582   3.491   0.000   5.073
   25        1.583   3.478   0.000   5.061
   26        1.584   3.473   0.000   5.057
   27        1.583   3.474   0.000   5.057
   28        1.582   3.493   0.000   5.075
   29        1.582   3.494   0.000   5.076
   30        1.582   3.493   0.000   5.074
   31        1.584   3.498   0.000   5.082
   32        1.584   3.468   0.000   5.053
   33        1.584   3.497   0.000   5.081
   34        1.584   3.485   0.000   5.068
   35        1.584   3.462   0.000   5.046
   36        1.584   3.484   0.000   5.068
   37        1.582   3.498   0.000   5.080
   38        1.581   3.490   0.000   5.071
   39        1.581   3.494   0.000   5.075
   40        1.582   3.482   0.000   5.064
   41        1.582   3.494   0.000   5.076
   42        1.582   3.487   0.000   5.069
   43        1.586   3.363   0.000   4.949
   44        1.586   3.363   0.000   4.949
   45        1.586   3.363   0.000   4.949
   46        1.587   3.375   0.000   4.962
   47        1.587   3.375   0.000   4.962
   48        1.587   3.375   0.000   4.962
   49        1.587   3.378   0.000   4.966
   50        1.587   3.379   0.000   4.966
   51        1.587   3.379   0.000   4.966
   52        1.590   3.364   0.000   4.953
   53        1.589   3.364   0.000   4.954
   54        1.590   3.364   0.000   4.953
   55        1.586   3.425   0.000   5.011
   56        1.585   3.427   0.000   5.012
   57        1.584   3.421   0.000   5.006
   58        1.598   3.438   0.000   5.036
   59        1.592   3.457   0.000   5.049
   60        1.590   3.442   0.000   5.032
   61        1.586   3.440   0.000   5.026
   62        1.589   3.413   0.000   5.002
   63        1.586   3.436   0.000   5.022
   64        1.585   3.408   0.000   4.992
   65        1.587   3.425   0.000   5.012
   66        1.585   3.418   0.000   5.003
   67        1.584   3.397   0.000   4.981
   68        1.585   3.399   0.000   4.985
   69        1.587   3.407   0.000   4.994
   70        1.585   3.434   0.000   5.019
   71        1.584   3.421   0.000   5.005
   72        1.583   3.431   0.000   5.014
   73        1.589   3.441   0.000   5.030
   74        1.587   3.433   0.000   5.020
   75        1.590   3.451   0.000   5.041
   76        1.582   3.419   0.000   5.001
   77        1.584   3.411   0.000   4.995
   78        1.583   3.411   0.000   4.994
   79        1.585   3.443   0.000   5.027
   80        1.585   3.440   0.000   5.025
   81        1.585   3.443   0.000   5.027
   82        1.588   3.403   0.000   4.992
   83        1.588   3.400   0.000   4.988
   84        1.588   3.402   0.000   4.991
   85        1.590   3.405   0.000   4.995
   86        1.590   3.405   0.000   4.996
   87        1.591   3.403   0.000   4.994
   88        1.583   3.435   0.000   5.018
   89        1.583   3.436   0.000   5.018
   90        1.583   3.434   0.000   5.017
   91        0.393   6.310   6.068  12.770
   92        0.397   6.317   6.071  12.786
   93        0.399   6.394   6.113  12.905
   94        0.406   6.365   6.060  12.831
   95        0.407   6.213   6.086  12.706
   96        0.397   6.319   6.066  12.781
   97        0.402   6.322   6.077  12.801
   98        0.397   6.385   6.109  12.891
   99        0.373   6.297   6.038  12.708
  100        0.410   6.209   6.081  12.700
  101        0.391   6.316   6.076  12.782
  102        0.387   6.320   6.072  12.779
  103        0.383   6.369   6.070  12.822
  104        0.355   6.274   6.020  12.649
  105        0.408   6.209   6.090  12.707
  106        0.402   6.355   6.059  12.816
  107        0.375   6.299   6.062  12.736
  108        0.356   6.282   6.057  12.695
  109        0.361   6.340   6.072  12.772
  110        0.351   6.323   6.037  12.711
  111        0.372   6.353   6.107  12.832
  112        0.388   6.325   6.115  12.828
  113        0.340   6.318   6.071  12.729
  114        0.372   6.362   6.004  12.738
  115        0.344   6.369   6.103  12.815
  116        0.331   6.300   6.028  12.659
  117        0.329   6.294   5.997  12.621
  118        0.314   6.376   5.663  12.353
  119        0.311   6.367   5.673  12.351
  120        0.309   6.365   5.666  12.340
  121        0.307   6.355   5.676  12.339
  122        0.314   6.377   5.685  12.376
  123        0.313   6.374   5.670  12.358
  124        0.306   6.352   5.660  12.317
  125        0.314   6.374   5.661  12.348
  126        0.311   6.386   5.663  12.361
  127        0.315   6.381   5.699  12.396
  128        0.311   6.386   5.663  12.360
  129        0.315   6.393   5.686  12.393
  130        0.281   6.330   5.934  12.544
  131        0.315   6.394   5.687  12.395
  132        0.312   6.386   5.675  12.373
  133        0.312   6.386   5.678  12.377
  134        0.315   6.393   5.687  12.396
  135        0.227   6.210   7.883  14.320
  136        0.228   6.206   7.879  14.313
  137        0.226   6.205   7.879  14.311
  138        2.011   5.751   0.187   7.949
  139        2.010   5.751   0.187   7.948
  140        2.010   5.751   0.189   7.950
  141        2.012   5.752   0.201   7.965
  142        2.012   5.752   0.200   7.965
  143        2.011   5.751   0.204   7.967
  144        2.006   5.794   0.229   8.029
  145        2.006   5.794   0.229   8.029
  146        2.006   5.794   0.229   8.029
  147        2.005   5.796   0.229   8.030
  148        2.002   5.783   0.201   7.985
  149        2.004   5.793   0.222   8.019
  150        2.007   5.798   0.243   8.048
  151        2.007   5.796   0.244   8.046
  152        2.013   5.623   0.367   8.003
  153        2.013   5.624   0.376   8.012
  154        2.016   5.644   0.402   8.062
  155        2.013   5.641   0.374   8.028
  156        2.009   5.631   0.330   7.970
  157        2.013   5.640   0.363   8.016
  158        2.015   5.641   0.385   8.040
  159        2.015   5.641   0.385   8.041
  160        2.015   5.640   0.384   8.039
  161        2.061   5.820   0.711   8.592
  162        2.057   5.823   0.693   8.573
  163        2.060   5.821   0.704   8.586
  164        2.059   5.818   0.701   8.578
  165        2.063   5.827   0.728   8.618
  166        2.062   5.820   0.720   8.602
  167        2.076   5.771   0.728   8.575
  168        2.076   5.771   0.733   8.580
  169        2.075   5.769   0.734   8.579
  170        2.077   5.767   0.739   8.583
  171        2.079   5.769   0.733   8.581
  172        2.077   5.767   0.745   8.589
  173        2.063   5.823   0.757   8.643
  174        2.064   5.830   0.748   8.642
  175        2.065   5.834   0.746   8.645
  176        2.070   5.818   0.780   8.668
  177        2.062   5.830   0.736   8.627
  178        2.062   5.822   0.706   8.590
  179        2.063   5.823   0.708   8.594
  180        2.063   5.823   0.708   8.594
  181        2.060   5.824   0.698   8.582
  182        2.060   5.824   0.698   8.582
  183        2.060   5.824   0.700   8.584
--------------------------------------------------
tot        252.691 872.338 307.1871432.216



 magnetization (x)

# of ion       s       p       d       tot
------------------------------------------
    1        0.013   0.196   0.000   0.209
    2        0.013   0.222   0.000   0.235
    3        0.014   0.219   0.000   0.233
    4        0.014   0.209   0.000   0.222
    5        0.009   0.155   0.000   0.164
    6        0.008   0.146   0.000   0.154
    7        0.013   0.166   0.000   0.179
    8        0.010   0.152   0.000   0.162
    9        0.009   0.131   0.000   0.140
   10        0.013   0.171   0.000   0.184
   11        0.012   0.158   0.000   0.169
   12        0.012   0.187   0.000   0.199
   13        0.013   0.191   0.000   0.204
   14        0.014   0.236   0.000   0.250
   15        0.012   0.194   0.000   0.206
   16        0.013   0.182   0.000   0.195
   17        0.013   0.207   0.000   0.220
   18        0.012   0.150   0.000   0.162
   19        0.013   0.174   0.000   0.188
   20        0.013   0.154   0.000   0.166
   21        0.013   0.170   0.000   0.183
   22        0.010   0.134   0.000   0.145
   23        0.008   0.049   0.000   0.057
   24        0.010   0.124   0.000   0.135
   25        0.013   0.174   0.000   0.187
   26        0.013   0.152   0.000   0.164
   27        0.013   0.180   0.000   0.193
   28        0.011   0.122   0.000   0.133
   29        0.008   0.048   0.000   0.056
   30        0.011   0.130   0.000   0.140
   31        0.013   0.185   0.000   0.198
   32        0.011   0.105   0.000   0.116
   33        0.013   0.184   0.000   0.197
   34        0.013   0.169   0.000   0.181
   35        0.011   0.103   0.000   0.114
   36        0.013   0.170   0.000   0.182
   37        0.011   0.125   0.000   0.136
   38        0.011   0.129   0.000   0.140
   39        0.011   0.132   0.000   0.143
   40        0.010   0.119   0.000   0.129
   41        0.010   0.110   0.000   0.120
   42        0.010   0.123   0.000   0.133
   43        0.002   0.007   0.000   0.009
   44       -0.001  -0.002   0.000  -0.003
   45       -0.001  -0.007   0.000  -0.008
   46        0.002   0.007   0.000   0.010
   47       -0.002  -0.002   0.000  -0.004
   48       -0.001  -0.004   0.000  -0.005
   49       -0.001   0.001   0.000  -0.000
   50       -0.000  -0.003   0.000  -0.003
   51        0.001   0.005   0.000   0.007
   52       -0.001   0.001   0.000   0.000
   53       -0.000  -0.005   0.000  -0.006
   54        0.001   0.003   0.000   0.004
   55        0.004   0.089   0.000   0.093
   56        0.006   0.107   0.000   0.113
   57        0.007   0.130   0.000   0.137
   58        0.003   0.162   0.000   0.165
   59        0.007   0.155   0.000   0.162
   60        0.008   0.201   0.000   0.208
   61        0.007   0.170   0.000   0.178
   62        0.004   0.083   0.000   0.087
   63        0.008   0.192   0.000   0.200
   64        0.006   0.105   0.000   0.111
   65        0.007   0.140   0.000   0.147
   66        0.007   0.129   0.000   0.136
   67        0.003   0.065   0.000   0.068
   68        0.004   0.096   0.000   0.099
   69        0.003   0.063   0.000   0.066
   70        0.006   0.136   0.000   0.142
   71        0.008   0.140   0.000   0.148
   72        0.006   0.143   0.000   0.149
   73        0.006   0.142   0.000   0.148
   74        0.006   0.149   0.000   0.156
   75        0.006   0.156   0.000   0.162
   76        0.003   0.042   0.000   0.045
   77        0.003   0.040   0.000   0.043
   78        0.003   0.041   0.000   0.044
   79        0.007   0.109   0.000   0.116
   80        0.007   0.121   0.000   0.129
   81        0.007   0.111   0.000   0.118
   82        0.003   0.028   0.000   0.031
   83        0.004   0.021   0.000   0.026
   84        0.004   0.030   0.000   0.034
   85        0.004   0.030   0.000   0.034
   86        0.003   0.027   0.000   0.029
   87        0.003   0.024   0.000   0.028
   88        0.004   0.032   0.000   0.036
   89        0.004   0.033   0.000   0.037
   90        0.004   0.032   0.000   0.036
   91       -0.003  -0.023   2.698   2.672
   92       -0.001  -0.025   2.675   2.649
   93       -0.009  -0.035   2.611   2.567
   94        0.003  -0.007   2.505   2.501
   95        0.011   0.033   2.787   2.832
   96        0.003  -0.024   2.648   2.627
   97        0.003  -0.027   2.583   2.559
   98       -0.005  -0.033   2.554   2.516
   99        0.009   0.002   2.776   2.786
  100        0.014   0.031   2.787   2.832
  101       -0.006  -0.032   2.715   2.678
  102       -0.005  -0.031   2.719   2.684
  103       -0.007  -0.032   2.591   2.552
  104        0.006   0.002   2.911   2.919
  105        0.009   0.028   2.767   2.804
  106        0.004  -0.004   2.566   2.565
  107        0.006   0.001   2.739   2.747
  108        0.005   0.001   2.828   2.833
  109       -0.005  -0.023   2.707   2.679
  110       -0.002  -0.012   2.814   2.800
  111       -0.007  -0.026   2.694   2.661
  112       -0.005  -0.027   2.711   2.678
  113       -0.005  -0.009   2.784   2.770
  114        0.004  -0.012   2.834   2.826
  115        0.001   0.004   2.110   2.115
  116        0.001   0.012   2.991   3.004
  117        0.009   0.012   3.084   3.105
  118        0.039   0.045   3.996   4.079
  119        0.038   0.043   4.062   4.143
  120        0.033   0.055   4.018   4.106
  121        0.033   0.053   4.065   4.152
  122        0.031   0.050   4.059   4.140
  123        0.034   0.052   4.005   4.091
  124        0.040   0.045   4.067   4.152
  125        0.040   0.045   3.991   4.076
  126        0.029   0.045   4.143   4.218
  127        0.032   0.047   4.021   4.101
  128        0.029   0.046   4.144   4.219
  129        0.029   0.043   4.116   4.188
  130        0.038   0.035   3.496   3.569
  131        0.028   0.044   4.117   4.189
  132        0.029   0.044   4.112   4.185
  133        0.028   0.045   4.109   4.182
  134        0.028   0.047   4.113   4.188
  135        0.014   0.013   1.767   1.794
  136        0.015   0.013   1.767   1.796
  137        0.015   0.014   1.780   1.809
  138       -0.004  -0.001   0.004  -0.001
  139        0.003   0.001   0.006   0.011
  140        0.003   0.002   0.008   0.013
  141        0.004   0.003   0.006   0.013
  142       -0.004  -0.003   0.001  -0.006
  143        0.001  -0.001   0.003   0.003
  144        0.000   0.001  -0.000   0.001
  145       -0.000   0.000  -0.001  -0.001
  146       -0.000   0.000  -0.001  -0.001
  147        0.001   0.003   0.003   0.007
  148        0.000   0.001   0.001   0.003
  149        0.001   0.003   0.004   0.008
  150        0.001   0.002   0.000   0.004
  151        0.001   0.002   0.001   0.004
  152        0.001   0.006   0.008   0.015
  153        0.001   0.006   0.007   0.014
  154        0.001   0.005   0.000   0.007
  155        0.001   0.005   0.006   0.012
  156       -0.000   0.001   0.001   0.002
  157        0.001   0.003   0.002   0.006
  158       -0.000   0.000  -0.003  -0.003
  159       -0.000   0.000  -0.003  -0.002
  160       -0.000   0.001  -0.002  -0.002
  161        0.002   0.003   0.009   0.014
  162        0.001   0.002   0.010   0.013
  163        0.001   0.002   0.005   0.008
  164        0.001   0.002   0.007   0.010
  165        0.001   0.001   0.001   0.003
  166        0.002   0.003   0.008   0.013
  167       -0.009  -0.004  -0.013  -0.026
  168        0.009   0.005   0.032   0.046
  169       -0.001  -0.003  -0.005  -0.008
  170        0.002  -0.001   0.001   0.002
  171       -0.010  -0.004  -0.010  -0.023
  172        0.006   0.003   0.024   0.033
  173        0.002   0.003   0.002   0.007
  174        0.001   0.003  -0.000   0.005
  175        0.001   0.003   0.009   0.013
  176        0.000   0.002  -0.004  -0.003
  177        0.001   0.003   0.002   0.007
  178        0.001   0.000   0.000   0.002
  179       -0.000   0.000  -0.001  -0.001
  180       -0.000   0.000  -0.001  -0.001
  181       -0.000   0.000  -0.001  -0.000
  182       -0.000   0.001  -0.001  -0.001
  183        0.000   0.001   0.000   0.001
--------------------------------------------------
tot          1.327  10.647 147.268 159.242
 

 total amount of memory used by VASP MPI-rank0   172430. kBytes
=======================================================================

   base      :      30000. kBytes
   nonlr-proj:      45029. kBytes
   fftplans  :       4226. kBytes
   grid      :      59322. kBytes
   one-center:       5692. kBytes
   wavefun   :      28161. kBytes
 
  
  
 General timing and accounting informations for this job:
 ========================================================
  
                  Total CPU time used (sec):     2759.348
                            User time (sec):     2666.586
                          System time (sec):       92.762
                         Elapsed time (sec):     2769.674
  
                   Maximum memory used (kb):     1032396.
                   Average memory used (kb):          N/A
  
                          Minor page faults:      2073869
                          Major page faults:            0
                 Voluntary context switches:        23502
