 vasp.6.3.2 27Jun22 (build Aug 17 2022 19:46:44) complex                        
  
 executed on           tv1STDVTST date 2023.05.23  05:32:30
 running   20 mpi-ranks, with    1 threads/rank
 distrk:  each k-point on   20 cores,    1 groups
 distr:  one band on NCORE=   5 cores,    4 groups


--------------------------------------------------------------------------------------------------------


 INCAR:
    = \=\=\=\=\=\=\=\=\=\=\=\=\=\=\=\=\=\=\=\=\=\=\=\=\=\=\=\=\=\=\=\=\=\=\=\=\=\=\=\=\=\=\=\=\=\=\=\=\=\=\=\=\=\=\=\=\=\=\=\=\=\=\=\=\=\=\=\=\=\=\=\=
    = \=\=\=\=\=\=\=\=\=\=\=\=\=\=\=\=\=\=\=\=\=\=\=\=\=\=\=\=\=\=\=\=\=\=\=\=\=\=\=\=\=\=\=\=\=\=\=\=\=\=\=\=\=\=\=\=\=\=\=\=\=\=\=\=\=\=\=\=\=\=\=\=
   ISTART = 0
   ICHARG = 2
   IDIPOL = 3
   MAGMOM = 12*-2 12*2 32*0 4*-4 4*4
   NUPDOWN = 0
    = \=\=\=\=\=\=\=\=\=\=\=\=\=\=\=\=\=\=\=\=\=\=\=\=\=\=\=\=\=\=\=\=\=\=\=\=\=\=\=\=\=\=\=\=\=\=\=\=\=\=\=\=\=\=\=\=\=\=\=\=\=\=\=\=\=\=\=\=\=\=\=\=
    = \=\=\=\=\=\=\=\=\=\=\=\=\=\=\=\=\=\=\=\=\=\=\=\=\=\=\=\=\=\=\=\=\=\=\=\=\=\=\=\=\=\=\=\=\=\=\=\=\=\=\=\=\=\=\=\=\=\=\=\=\=\=\=\=\=\=\=\=\=\=\=\=
   ISPIN = 2
   LDAU = .TRUE
   LDAUTYPE = 2
   LDAUL = 2 -1 2
   LDAUU = 5.3 0 4
   LDAUJ = 0 0 0
    = \=\=\=\=\=\=\=\=\=\=\=\=\=\=\=\=\=\=\=\=\=\=\=\=\=\=\=\=\=\=\=\=\=\=\=\=\=\=\=\=\=\=\=\=\=\=\=\=\=\=\=\=\=\=\=\=\=\=\=\=\=\=\=\=\=\=\=\=\=\=\=\=
    = \=\=\=\=\=\=\=\=\=\=\=\=\=\=\=\=\=\=\=\=\=\=\=\=\=\=\=\=\=\=\=\=\=\=\=\=\=\=\=\=\=\=\=\=\=\=\=\=\=\=\=\=\=\=\=\=\=\=\=\=\=\=\=\=\=\=\=\=\=\=\=\=
   ENCUT = 400
   PREC = N
   EDIFF = 1E-05
   GGA = PE
   ISMEAR = 0
   SIGMA = 0.05
   ALGO = F
   LREAL = Auto
   LMAXMIX = 4
   LASPH = .TRUE
    = \=\=\=\=\=\=\=\=\=\=\=\=\=\=\=\=\=\=\=\=\=\=\=\=\=\=\=\=\=\=\=\=\=\=\=\=\=\=\=\=\=\=\=\=\=\=\=\=\=\=\=\=\=\=\=\=\=\=\=\=\=\=\=\=\=\=\=\=\=\=\=\=
    = \=\=\=\=\=\=\=\=\=\=\=\=\=\=\=\=\=\=\=\=\=\=\=\=\=\=\=\=\=\=\=\=\=\=\=\=\=\=\=\=\=\=\=\=\=\=\=\=\=\=\=\=\=\=\=\=\=\=\=\=\=\=\=\=\=\=\=\=\=\=\=\=
   ISYM = 0
   NSW = 800
   IBRION = 2
   POTIM = 0.5
   ISIF = 2
   EDIFFG = -.03
    = \=\=\=\=\=\=\=\=\=\=\=\=\=\=\=\=\=\=\=\=\=\=\=\=\=\=\=\=\=\=\=\=\=\=\=\=\=\=\=\=\=\=\=\=\=\=\=\=\=\=\=\=\=\=\=\=\=\=\=\=\=\=\=\=\=\=\=\=\=\=\=\=
    = \=\=\=\=\=\=\=\=\=\=\=\=\=\=\=\=\=\=\=\=\=\=\=\=\=\=\=\=\=\=\=\=\=\=\=\=\=\=\=\=\=\=\=\=\=\=\=\=\=\=\=\=\=\=\=\=\=\=\=\=\=\=\=\=\=\=\=\=\=\=\=\=
   NPAR = 4
   LWAVE = .FALSE.
   LCHARG = .FALSE.
   LORBIT = 11

 POTCAR:    PAW_PBE Ni 02Aug2007                  
 POTCAR:    PAW_PBE O 08Apr2002                   
 POTCAR:    PAW_PBE Fe 06Sep2000                  
 POTCAR:    PAW_PBE Ni 02Aug2007                  
   SHA256 =  0534bc51ca8003dfef23f56753fef9fdd3e22eac8d719fccacb59f3e6b7a69c7 Ni/POTCAR             
   COPYR  = (c) Copyright 02Aug2007 Georg Kresse                                                    
   COPYR  = This file is part of the software VASP. Any use, copying, and all other rights are regul
   COPYR  = If you do not have a valid VASP license, you may not use, copy or distribute this file. 
   VRHFIN =Ni:                                                                                      
   LEXCH  = PE                                                                                      
   EATOM  =  1077.6739 eV,   79.2068 Ry                                                             
                                                                                                    
   TITEL  = PAW_PBE Ni 02Aug2007                                                                    
   LULTRA =        F    use ultrasoft PP ?                                                          
   IUNSCR =        1    unscreen: 0-lin 1-nonlin 2-no                                               
   RPACOR =    2.000    partial core radius                                                         
   POMASS =   58.690; ZVAL   =   10.000    mass and valenz                                          
   RCORE  =    2.300    outmost cutoff radius                                                       
   RWIGS  =    2.430; RWIGS  =    1.286    wigner-seitz radius (au A)                               
   ENMAX  =  269.532; ENMIN  =  202.149 eV                                                          
   RCLOC  =    1.201    cutoff for local pot                                                        
   LCOR   =        T    correct aug charges                                                         
   LPAW   =        T    paw PP                                                                      
   EAUG   =  544.565                                                                                
   DEXC   =    0.000                                                                                
   RMAX   =    2.357    core radius for proj-oper                                                   
   RAUG   =    1.300    factor for augmentation sphere                                              
   RDEP   =    2.390    radius for radial grids                                                     
   RDEPT  =    1.838    core radius for aug-charge                                                  
                                                                                                    
   Atomic configuration                                                                             
    9 entries                                                                                       
     n  l   j            E        occ.                                                              
     1  0  0.50     -8206.4253   2.0000                                                             
     2  0  0.50      -976.1748   2.0000                                                             
     2  1  1.50      -839.0571   6.0000                                                             
     3  0  0.50      -105.9991   2.0000                                                             
     3  1  1.50       -66.4603   6.0000                                                             
     3  2  2.50        -4.6458   9.0000                                                             
     4  0  0.50        -4.4926   1.0000                                                             
     4  1  1.50        -4.0817   0.0000                                                             
     4  3  2.50        -1.3606   0.0000                                                             
   Description                                                                                      
     l       E           TYP  RCUT    TYP  RCUT                                                     
     2     -4.6457903     23  2.300                                                                 
     2     -6.0063729     23  2.300                                                                 
     0     -4.4925590     23  2.300                                                                 
     0      5.0102601     23  2.300                                                                 
     1     -2.7211652     23  2.300                                                                 
     1     16.5183231     23  2.300                                                                 
  local pseudopotential read in
  partial core-charges read in
  partial kinetic energy density read in
  atomic valenz-charges read in
  non local Contribution for L=           2  read in
    real space projection operators read in
  non local Contribution for L=           2  read in
    real space projection operators read in
  non local Contribution for L=           0  read in
    real space projection operators read in
  non local Contribution for L=           0  read in
    real space projection operators read in
  non local Contribution for L=           1  read in
    real space projection operators read in
  non local Contribution for L=           1  read in
    real space projection operators read in
    PAW grid and wavefunctions read in
 
   number of l-projection  operators is LMAX  =           6
   number of lm-projection operators is LMMAX =          18
 
 POTCAR:    PAW_PBE O 08Apr2002                   
   SHA256 =  818f92134a0a090dccd8ba1447fa70422a3b330e708bb4f08108d8ae51209ddf O/POTCAR              
   COPYR  = (c) Copyright 08Apr2002 Georg Kresse                                                    
   COPYR  = This file is part of the software VASP. Any use, copying, and all other rights are regul
   COPYR  = If you do not have a valid VASP license, you may not use, copy or distribute this file. 
   VRHFIN =O: s2p4                                                                                  
   LEXCH  = PE                                                                                      
   EATOM  =   432.3788 eV,   31.7789 Ry                                                             
                                                                                                    
   TITEL  = PAW_PBE O 08Apr2002                                                                     
   LULTRA =        F    use ultrasoft PP ?                                                          
   IUNSCR =        1    unscreen: 0-lin 1-nonlin 2-no                                               
   RPACOR =    1.200    partial core radius                                                         
   POMASS =   16.000; ZVAL   =    6.000    mass and valenz                                          
   RCORE  =    1.520    outmost cutoff radius                                                       
   RWIGS  =    1.550; RWIGS  =    0.820    wigner-seitz radius (au A)                               
   ENMAX  =  400.000; ENMIN  =  300.000 eV                                                          
   ICORE  =        2    local potential                                                             
   LCOR   =        T    correct aug charges                                                         
   LPAW   =        T    paw PP                                                                      
   EAUG   =  605.392                                                                                
   DEXC   =    0.000                                                                                
   RMAX   =    1.553    core radius for proj-oper                                                   
   RAUG   =    1.300    factor for augmentation sphere                                              
   RDEP   =    1.550    radius for radial grids                                                     
   RDEPT  =    1.329    core radius for aug-charge                                                  
                                                                                                    
   Atomic configuration                                                                             
    4 entries                                                                                       
     n  l   j            E        occ.                                                              
     1  0  0.50      -514.6923   2.0000                                                             
     2  0  0.50       -23.9615   2.0000                                                             
     2  1  0.50        -9.0305   4.0000                                                             
     3  2  1.50        -9.5241   0.0000                                                             
   Description                                                                                      
     l       E           TYP  RCUT    TYP  RCUT                                                     
     0    -23.9615318     23  1.200                                                                 
     0     -9.5240782     23  1.200                                                                 
     1     -9.0304911     23  1.520                                                                 
     1      8.1634956     23  1.520                                                                 
     2     -9.5240782      7  1.500                                                                 
  local pseudopotential read in
  partial core-charges read in
  partial kinetic energy density read in
  kinetic energy density of atom read in
  atomic valenz-charges read in
  non local Contribution for L=           0  read in
    real space projection operators read in
  non local Contribution for L=           0  read in
    real space projection operators read in
  non local Contribution for L=           1  read in
    real space projection operators read in
  non local Contribution for L=           1  read in
    real space projection operators read in
    PAW grid and wavefunctions read in
 
   number of l-projection  operators is LMAX  =           4
   number of lm-projection operators is LMMAX =           8
 
 POTCAR:    PAW_PBE Fe 06Sep2000                  
   SHA256 =  cd5a22d9368cc8b5cc476bea79732366149640da08ac9009b0e1b7fc627eea28 Fe/POTCAR             
   COPYR  = (c) Copyright 06Sep2000 Georg Kresse                                                    
   COPYR  = This file is part of the software VASP. Any use, copying, and all other rights are regul
   COPYR  = If you do not have a valid VASP license, you may not use, copy or distribute this file. 
   VRHFIN =Fe:  d7 s1                                                                               
   LEXCH  = PE                                                                                      
   EATOM  =   594.3153 eV,   43.6809 Ry                                                             
                                                                                                    
   TITEL  = PAW_PBE Fe 06Sep2000                                                                    
   LULTRA =        F    use ultrasoft PP ?                                                          
   IUNSCR =        1    unscreen: 0-lin 1-nonlin 2-no                                               
   RPACOR =    2.000    partial core radius                                                         
   POMASS =   55.847; ZVAL   =    8.000    mass and valenz                                          
   RCORE  =    2.300    outmost cutoff radius                                                       
   RWIGS  =    2.460; RWIGS  =    1.302    wigner-seitz radius (au A)                               
   ENMAX  =  267.882; ENMIN  =  200.911 eV                                                          
   RCLOC  =    1.701    cutoff for local pot                                                        
   LCOR   =        T    correct aug charges                                                         
   LPAW   =        T    paw PP                                                                      
   EAUG   =  511.368                                                                                
   DEXC   =    0.000                                                                                
   RMAX   =    2.356    core radius for proj-oper                                                   
   RAUG   =    1.300    factor for augmentation sphere                                              
   RDEP   =    2.442    radius for radial grids                                                     
   RDEPT  =    1.890    core radius for aug-charge                                                  
                                                                                                    
   Atomic configuration                                                                             
    9 entries                                                                                       
     n  l   j            E        occ.                                                              
     1  0  0.50     -6993.8440   2.0000                                                             
     2  0  0.50      -814.6047   2.0000                                                             
     2  1  1.50      -693.3689   6.0000                                                             
     3  0  0.50       -89.4732   2.0000                                                             
     3  1  1.50       -55.6373   6.0000                                                             
     3  2  2.50        -3.8151   7.0000                                                             
     4  0  0.50        -4.2551   1.0000                                                             
     4  1  1.50        -3.4015   0.0000                                                             
     4  3  2.50        -1.3606   0.0000                                                             
   Description                                                                                      
     l       E           TYP  RCUT    TYP  RCUT                                                     
     2     -3.8151135     23  2.300                                                                 
     2     -5.1756961     23  2.300                                                                 
     0     -4.2550963     23  2.300                                                                 
     0      7.2035603     23  2.300                                                                 
     1     -2.7211652     23  2.300                                                                 
     1     18.4316424     23  2.300                                                                 
  local pseudopotential read in
  partial core-charges read in
  partial kinetic energy density read in
  atomic valenz-charges read in
  non local Contribution for L=           2  read in
    real space projection operators read in
  non local Contribution for L=           2  read in
    real space projection operators read in
  non local Contribution for L=           0  read in
    real space projection operators read in
  non local Contribution for L=           0  read in
    real space projection operators read in
  non local Contribution for L=           1  read in
    real space projection operators read in
  non local Contribution for L=           1  read in
    real space projection operators read in
    PAW grid and wavefunctions read in
 
   number of l-projection  operators is LMAX  =           6
   number of lm-projection operators is LMMAX =          18
 
 Optimization of the real space projectors (new method)

 maximal supplied QI-value         = 16.25
 optimisation between [QCUT,QGAM] = [ 10.24, 20.48] = [ 29.35,117.42] Ry 
 Optimized for a Real-space Cutoff    1.34 Angstroem

   l    n(q)    QCUT    max X(q) W(low)/X(q) W(high)/X(q)  e(spline) 
   2      7    10.239    60.317    0.39E-03    0.10E-02    0.10E-06
   2      7    10.239    55.921    0.39E-03    0.10E-02    0.11E-06
   0      8    10.239    51.690    0.45E-03    0.17E-03    0.10E-06
   0      8    10.239    30.015    0.41E-03    0.16E-03    0.90E-07
   1      8    10.239    18.849    0.23E-03    0.62E-03    0.14E-06
   1      8    10.239    14.624    0.18E-03    0.51E-03    0.12E-06
 Optimization of the real space projectors (new method)

 maximal supplied QI-value         = 24.76
 optimisation between [QCUT,QGAM] = [ 10.15, 20.30] = [ 28.85,115.39] Ry 
 Optimized for a Real-space Cutoff    1.38 Angstroem

   l    n(q)    QCUT    max X(q) W(low)/X(q) W(high)/X(q)  e(spline) 
   0      8    10.150    20.381    0.22E-03    0.32E-03    0.29E-06
   0      8    10.150    15.268    0.23E-03    0.35E-03    0.30E-06
   1      8    10.150     5.964    0.46E-03    0.53E-03    0.21E-06
   1      8    10.150     5.382    0.38E-03    0.45E-03    0.19E-06
 Optimization of the real space projectors (new method)

 maximal supplied QI-value         = 16.25
 optimisation between [QCUT,QGAM] = [ 10.24, 20.48] = [ 29.35,117.42] Ry 
 Optimized for a Real-space Cutoff    1.51 Angstroem

   l    n(q)    QCUT    max X(q) W(low)/X(q) W(high)/X(q)  e(spline) 
   2      8    10.239    80.901    0.43E-03    0.67E-03    0.20E-06
   2      8    10.239    75.754    0.44E-03    0.68E-03    0.20E-06
   0      9    10.239    58.752    0.81E-04    0.41E-04    0.71E-07
   0      9    10.239    30.679    0.75E-04    0.39E-04    0.65E-07
   1      9    10.239    17.977    0.50E-04    0.16E-03    0.11E-06
   1      9    10.239    13.559    0.39E-04    0.13E-03    0.98E-07
  PAW_PBE Ni 02Aug2007                  :
 energy of atom  1       EATOM=-1077.6739
 kinetic energy error for atom=    0.0101 (will be added to EATOM!!)
  PAW_PBE O 08Apr2002                   :
 energy of atom  2       EATOM= -432.3788
 kinetic energy error for atom=    0.1156 (will be added to EATOM!!)
  PAW_PBE Fe 06Sep2000                  :
 energy of atom  3       EATOM= -594.3153
 kinetic energy error for atom=    0.0088 (will be added to EATOM!!)
 
 
 POSCAR: Ni  O
  positions in cartesian coordinates
  No initial velocities read in
 exchange correlation table for  LEXCH =        8
   RHO(1)=    0.500       N(1)  =     2000
   RHO(2)=  100.500       N(2)  =     4000

 VTST: version 4.2, (08/11/21)

 CHAIN: initializing optimizer
 
 OPT: Using VASP Conjugate-Gradient optimizer
 CHAIN: Read ICHAIN            0
 
 POSCAR: Ni  O
  positions in cartesian coordinates
  No initial velocities read in
 


--------------------------------------------------------------------------------------------------------


 ion  position               nearest neighbor table
   1  1.000  1.000  0.321-  42 2.06  35 2.06  27 2.07  26 2.07  29 2.08  24 2.92  22 2.92  61 2.92
                             2 2.92  13 2.92   3 2.92  60 2.92  10 2.92
   2  0.250  0.750  0.321-  35 2.06  34 2.06  26 2.07  51 2.07  40 2.08  22 2.92  64 2.92   1 2.92
                            15 2.92  57 2.92  14 2.92  10 2.92  11 2.92
   3  0.750  0.250  0.321-  43 2.06  42 2.06  50 2.07  27 2.07  48 2.08  23 2.92  24 2.92  57 2.92
                            15 2.92  14 2.92   1 2.92  12 2.92  60 2.92
   4  0.000  0.750  0.052-  36 2.06  25 2.06  33 2.07  52 2.07  39 2.08  20 2.92  19 2.92  18 2.92
                             6 2.92  58 2.92  17 2.92   8 2.92   9 2.92
   5  0.500  0.250  0.052-  44 2.06  49 2.06  41 2.07  28 2.07  47 2.08  63 2.92  21 2.92   6 2.92
                            17 2.92  18 2.92  58 2.92  59 2.92   7 2.92
   6  0.750  0.000  0.052-  25 2.06  44 2.06  52 2.07  41 2.07  46 2.08  19 2.92  63 2.92  16 2.92
                             4 2.92   5 2.92  62 2.92   9 2.92  59 2.92
   7  0.250  0.250  0.141-  47 2.06  38 2.06  30 2.07  31 2.07  28 2.10  32 2.11  16 2.92  17 2.92
                            59 2.92  21 2.92  19 2.92   8 2.92  58 2.92   5 2.92  60 2.96  10 2.96
   8  1.000  0.500  0.141-  39 2.06  38 2.06  31 2.07  54 2.07  33 2.10  37 2.11  18 2.92  16 2.92
                             9 2.92  63 2.92  20 2.92   7 2.92   4 2.92  58 2.92  12 2.96  60 2.96
   9  0.750  0.750  0.141-  39 2.06  46 2.06  54 2.07  55 2.07  52 2.10  56 2.11  62 2.92  18 2.92
                             8 2.92  19 2.92  21 2.92  59 2.92   6 2.92   4 2.92  11 2.96  12 2.96
  10  0.250  0.000  0.232-  29 2.06  40 2.06  32 2.07  45 2.07  26 2.10  30 2.11  15 2.92  13 2.92
                            23 2.92  60 2.92  11 2.92  22 2.92   2 2.92   1 2.92  59 2.96   7 2.96
  11  0.500  0.750  0.232-  53 2.06  40 2.06  45 2.07  56 2.07  51 2.10  55 2.11  61 2.92  15 2.92
                            12 2.92  64 2.92  10 2.92  24 2.92  57 2.92   2 2.92   9 2.96  59 2.96
  12  0.750  0.500  0.232-  48 2.06  53 2.06  56 2.07  37 2.07  50 2.10  54 2.11  14 2.92  61 2.92
                            60 2.92  22 2.92  11 2.92  23 2.92   3 2.92  57 2.92   8 2.96   9 2.96
  13  0.250  0.250  0.321-  27 2.06  26 2.06  34 2.07  43 2.07  32 2.08  60 2.92  10 2.92  15 2.92
                            14 2.92  57 2.92   1 2.92  64 2.92  23 2.92
  14  1.000  0.500  0.321-  50 2.06  27 2.06  35 2.07  34 2.07  37 2.08  12 2.92  60 2.92   3 2.92
                            13 2.92  61 2.92   2 2.92  22 2.92  64 2.92
  15  0.500  1.000  0.321-  26 2.06  51 2.06  43 2.07  42 2.07  45 2.08  10 2.92  11 2.92  13 2.92
                             2 2.92   3 2.92  61 2.92  23 2.92  24 2.92
  16  0.000  0.250  0.052-  28 2.06  33 2.06  25 2.07  44 2.07  31 2.08   7 2.92   8 2.92   6 2.92
                            18 2.92  58 2.92  17 2.92  19 2.92  63 2.92
  17  0.250  0.000  0.052-  41 2.06  28 2.06  36 2.07  25 2.07  30 2.08  59 2.92   7 2.92   5 2.92
                            62 2.92  16 2.92   4 2.92  20 2.92  19 2.92
  18  0.750  0.500  0.052-  33 2.06  52 2.06  44 2.07  49 2.07  54 2.08   8 2.92   9 2.92   4 2.92
                            16 2.92  62 2.92   5 2.92  63 2.92  21 2.92
  19  1.000  1.000  0.141-  30 2.06  31 2.06  39 2.07  46 2.07  25 2.10  29 2.11   6 2.92   4 2.92
                             9 2.92  63 2.92  20 2.92   7 2.92  16 2.92  17 2.92  24 2.96  22 2.96
  20  0.250  0.750  0.141-  55 2.06  30 2.06  38 2.07  39 2.07  36 2.10  40 2.11   4 2.92  58 2.92
                            21 2.92   8 2.92  59 2.92  19 2.92  17 2.92  62 2.92  22 2.96  64 2.96
  21  0.500  0.500  0.141-  54 2.06  55 2.06  38 2.07  47 2.07  49 2.10  53 2.11  58 2.92   5 2.92
                            20 2.92   9 2.92   7 2.92  63 2.92  62 2.92  18 2.92  64 2.96  23 2.96
  22  0.000  0.750  0.232-  56 2.06  37 2.06  29 2.07  40 2.07  35 2.10  39 2.11   2 2.92   1 2.92
                            12 2.92  64 2.92  24 2.92  10 2.92  14 2.92  61 2.92  20 2.96  19 2.96
  23  0.500  0.250  0.232-  32 2.06  45 2.06  48 2.07  53 2.07  43 2.10  47 2.11   3 2.92  57 2.92
                            24 2.92  10 2.92  12 2.92  64 2.92  15 2.92  13 2.92  63 2.96  21 2.96
  24  0.750  0.000  0.232-  45 2.06  56 2.06  48 2.07  29 2.07  42 2.10  46 2.11   1 2.92   3 2.92
                            23 2.92  60 2.92  22 2.92  11 2.92  61 2.92  15 2.92  19 2.96  63 2.96
  25  0.000  0.000  0.050-   6 2.06   4 2.06  16 2.07  17 2.07  19 2.10
  26  0.250  1.000  0.323-  15 2.06  13 2.06   2 2.07   1 2.07  10 2.10
  27  1.000  0.250  0.323-  13 2.06  14 2.06   1 2.07   3 2.07  60 2.10
  28  0.250  0.250  0.050-  16 2.06  17 2.06  58 2.07   5 2.07   7 2.10
  29  0.000  0.000  0.232-  10 2.06  60 2.06  22 2.07  24 2.07   1 2.08  19 2.11
  30  0.250  1.000  0.141-  19 2.06  20 2.06   7 2.07  59 2.07  17 2.08  10 2.11
  31  1.000  0.250  0.141-  63 2.06  19 2.06   8 2.07   7 2.07  16 2.08  60 2.11
  32  0.250  0.250  0.232-  23 2.06  64 2.06  10 2.07  60 2.07  13 2.08   7 2.11
  33  0.000  0.500  0.050-  18 2.06  16 2.06   4 2.07  58 2.07   8 2.10
  34  0.250  0.500  0.323-  57 2.06   2 2.06  13 2.07  14 2.07  64 2.10
  35  1.000  0.750  0.323-   2 2.06   1 2.06  14 2.07  61 2.07  22 2.10
  36  0.250  0.750  0.050-   4 2.06  58 2.06  17 2.07  62 2.07  20 2.10
  37  0.000  0.500  0.232-  64 2.06  22 2.06  60 2.07  12 2.07  14 2.08   8 2.11
  38  0.250  0.500  0.141-   7 2.06   8 2.06  20 2.07  21 2.07  58 2.08  64 2.11
  39  1.000  0.750  0.141-   9 2.06   8 2.06  19 2.07  20 2.07   4 2.08  22 2.11
  40  0.250  0.750  0.232-  11 2.06  10 2.06  64 2.07  22 2.07   2 2.08  20 2.11
  41  0.500  0.000  0.050-  17 2.06  62 2.06   5 2.07   6 2.07  59 2.10
  42  0.750  1.000  0.323-   1 2.06   3 2.06  61 2.07  15 2.07  24 2.10
  43  0.500  0.250  0.323-   3 2.06  57 2.06  15 2.07  13 2.07  23 2.10
  44  0.750  0.250  0.050-   5 2.06   6 2.06  18 2.07  16 2.07  63 2.10
  45  0.500  0.000  0.232-  24 2.06  23 2.06  11 2.07  10 2.07  15 2.08  59 2.11
  46  0.750  1.000  0.141-  59 2.06   9 2.06  63 2.07  19 2.07   6 2.08  24 2.11
  47  0.500  0.250  0.141-   7 2.06  59 2.06  21 2.07  63 2.07   5 2.08  23 2.11
  48  0.750  0.250  0.232-  60 2.06  12 2.06  24 2.07  23 2.07   3 2.08  63 2.11
  49  0.500  0.500  0.050-  58 2.06   5 2.06  62 2.07  18 2.07  21 2.10
  50  0.750  0.500  0.323-  14 2.06  61 2.06   3 2.07  57 2.07  12 2.10
  51  0.500  0.750  0.323-  61 2.06  15 2.06  57 2.07   2 2.07  11 2.10
  52  0.750  0.750  0.050-  62 2.06  18 2.06   6 2.07   4 2.07   9 2.10
  53  0.500  0.500  0.232-  11 2.06  12 2.06  23 2.07  64 2.07  57 2.08  21 2.11
  54  0.750  0.500  0.141-  21 2.06  63 2.06   9 2.07   8 2.07  18 2.08  12 2.11
  55  0.500  0.750  0.141-  20 2.06  21 2.06  59 2.07   9 2.07  62 2.08  11 2.11
  56  0.750  0.750  0.232-  22 2.06  24 2.06  11 2.07  12 2.07  61 2.08   9 2.11
  57  0.500  0.500  0.321-  34 2.06  43 2.06  51 2.07  50 2.07  53 2.08  64 2.92  23 2.92   3 2.92
                            13 2.92   2 2.92  61 2.92  11 2.92  12 2.92
  58  0.250  0.500  0.052-  49 2.06  36 2.06  28 2.07  33 2.07  38 2.08  21 2.92  20 2.92  16 2.92
                             4 2.92  62 2.92   5 2.92   7 2.92   8 2.92
  59  0.500  1.000  0.141-  46 2.06  47 2.06  55 2.07  30 2.07  41 2.10  45 2.11  17 2.92  62 2.92
                             7 2.92  20 2.92   9 2.92  63 2.92   5 2.92   6 2.92  10 2.96  11 2.96
  60  0.000  0.250  0.232-  48 2.06  29 2.06  37 2.07  32 2.07  27 2.10  31 2.11  13 2.92  14 2.92
                            64 2.92  12 2.92  24 2.92  10 2.92   1 2.92   3 2.92   7 2.96   8 2.96
  61  0.750  0.750  0.321-  51 2.06  50 2.06  42 2.07  35 2.07  56 2.08  11 2.92  12 2.92   1 2.92
                            15 2.92  57 2.92  14 2.92  24 2.92  22 2.92
  62  0.500  0.750  0.052-  52 2.06  41 2.06  49 2.07  36 2.07  55 2.08   9 2.92  59 2.92  18 2.92
                            17 2.92   6 2.92  58 2.92  21 2.92  20 2.92
  63  0.750  0.250  0.141-  31 2.06  54 2.06  46 2.07  47 2.07  44 2.10  48 2.11   5 2.92   6 2.92
                             8 2.92  19 2.92  21 2.92  59 2.92  18 2.92  16 2.92  23 2.96  24 2.96
  64  0.250  0.500  0.232-  37 2.06  32 2.06  40 2.07  53 2.07  34 2.10  38 2.11  57 2.92   2 2.92
                            60 2.92  11 2.92  23 2.92  22 2.92  13 2.92  14 2.92  21 2.96  20 2.96
 

IMPORTANT INFORMATION: All symmetrisations will be switched off!
NOSYMM: (Re-)initialisation of all symmetry stuff for point group C_1.


----------------------------------------------------------------------------------------

                                     Primitive cell                                     

  volume of cell :    1586.3291

  direct lattice vectors                    reciprocal lattice vectors
     8.258574486  0.000000000  0.000000000     0.121086272  0.000000000  0.000000000
     0.000000000  8.258574486  0.000000000     0.000000000  0.121086272  0.000000000
     0.000000000  0.000000000 23.258575439     0.000000000  0.000000000  0.042994895

  length of vectors
     8.258574486  8.258574486 23.258575439     0.121086272  0.121086272  0.042994895

  position of ions in fractional coordinates (direct lattice)
     0.999553800  0.999554098  0.320940107
     0.249553815  0.749554157  0.320940107
     0.749553800  0.249554142  0.320940107
     0.000261758  0.750261426  0.051898405
     0.500261784  0.250261426  0.051898405
     0.750261784  0.000261438  0.051898398
     0.249848098  0.249848127  0.140649199
     0.999848068  0.499848157  0.140649199
     0.749848127  0.749848127  0.140649199
     0.250226796  0.000226752  0.232115537
     0.500226796  0.750226736  0.232115537
     0.750226796  0.500226736  0.232115537
     0.249553800  0.249554127  0.320940107
     0.999553800  0.499554127  0.320940107
     0.499553800  0.999554157  0.320940107
     0.000261765  0.250261426  0.051898394
     0.250261784  0.000261433  0.051898401
     0.750261784  0.500261426  0.051898394
     0.999848068  0.999848127  0.140649185
     0.249848083  0.749848127  0.140649199
     0.499848098  0.499848157  0.140649185
     0.000226795  0.750226736  0.232115537
     0.500226796  0.250226736  0.232115537
     0.750226796  0.000226753  0.232115537
     0.000255936  0.000255791  0.050353639
     0.249728814  0.999728978  0.322508395
     0.999728799  0.249728993  0.322508395
     0.250255972  0.250255793  0.050353643
     0.000321450  0.000321369  0.231580749
     0.249803230  0.999803305  0.141275451
     0.999803185  0.249803290  0.141275451
     0.250321448  0.250321358  0.231580764
     0.000255916  0.500255823  0.050353631
     0.249728799  0.499729007  0.322508365
     0.999728799  0.749728978  0.322508395
     0.250255942  0.750255764  0.050353643
     0.000321468  0.500321388  0.231580764
     0.249803230  0.499803275  0.141275451
     0.999803185  0.749803305  0.141275451
     0.250321448  0.750321388  0.231580749
     0.500256002  0.000255794  0.050353616
     0.749728799  0.999728978  0.322508395
     0.499728799  0.249729022  0.322508365
     0.750255942  0.250255793  0.050353631
     0.500321448  0.000321369  0.231580764
     0.749803185  0.999803305  0.141275451
     0.499803215  0.249803290  0.141275451
     0.750321448  0.250321388  0.231580764
     0.500255942  0.500255764  0.050353635
     0.749728799  0.499729007  0.322508395
     0.499728829  0.749729037  0.322508395
     0.750255942  0.750255764  0.050353624
     0.500321448  0.500321388  0.231580749
     0.749803185  0.499803305  0.141275451
     0.499803215  0.749803305  0.141275465
     0.750321448  0.750321388  0.231580764
     0.499553800  0.499554127  0.320940107
     0.250261754  0.500261426  0.051898416
     0.499848098  0.999848127  0.140649185
     0.000226796  0.250226766  0.232115537
     0.749553800  0.749554157  0.320940107
     0.500261784  0.750261426  0.051898409
     0.749848127  0.249848157  0.140649185
     0.250226796  0.500226736  0.232115537

  ion indices of the primitive-cell ions
   primitive index   ion index
                 1           1
                 2           2
                 3           3
                 4           4
                 5           5
                 6           6
                 7           7
                 8           8
                 9           9
                10          10
                11          11
                12          12
                13          13
                14          14
                15          15
                16          16
                17          17
                18          18
                19          19
                20          20
                21          21
                22          22
                23          23
                24          24
                25          25
                26          26
                27          27
                28          28
                29          29
                30          30
                31          31
                32          32
                33          33
                34          34
                35          35
                36          36
                37          37
                38          38
                39          39
                40          40
                41          41
                42          42
                43          43
                44          44
                45          45
                46          46
                47          47
                48          48
                49          49
                50          50
                51          51
                52          52
                53          53
                54          54
                55          55
                56          56
                57          57
                58          58
                59          59
                60          60
                61          61
                62          62
                63          63
                64          64

----------------------------------------------------------------------------------------

 
 
 KPOINTS: Auto-mesh                               

Automatic generation of k-mesh.
 Grid dimensions read from file:
 generate k-points for:    3    3    1

 Generating k-lattice:

  Cartesian coordinates                     Fractional coordinates (reciprocal lattice)
     0.040362091  0.000000000  0.000000000     0.333333333  0.000000000  0.000000000
     0.000000000  0.040362091  0.000000000     0.000000000  0.333333333  0.000000000
     0.000000000  0.000000000  0.042994895     0.000000000  0.000000000  1.000000000

  Length of vectors
     0.040362091  0.040362091  0.042994895

  Shift w.r.t. Gamma in fractional coordinates (k-lattice)
     0.000000000  0.000000000  0.000000000

 
 Subroutine IBZKPT returns following result:
 ===========================================
 
 Found      5 irreducible k-points:
 
 Following reciprocal coordinates:
            Coordinates               Weight
  0.000000  0.000000  0.000000      1.000000
  0.333333  0.000000  0.000000      2.000000
  0.000000  0.333333  0.000000      2.000000
  0.333333  0.333333  0.000000      2.000000
 -0.333333  0.333333  0.000000      2.000000
 
 Following cartesian coordinates:
            Coordinates               Weight
  0.000000  0.000000  0.000000      1.000000
  0.040362  0.000000  0.000000      2.000000
  0.000000  0.040362  0.000000      2.000000
  0.040362  0.040362  0.000000      2.000000
 -0.040362  0.040362  0.000000      2.000000
 


--------------------------------------------------------------------------------------------------------




 Dimension of arrays:
   k-points           NKPTS =      5   k-points in BZ     NKDIM =      5   number of bands    NBANDS=    300
   number of dos      NEDOS =    301   number of ions     NIONS =     64
   non local maximal  LDIM  =      6   non local SUM 2l+1 LMDIM =     18
   total plane-waves  NPLWV = 192000
   max r-space proj   IRMAX =   1790   max aug-charges    IRDMAX=   4510
   dimension x,y,z NGX =    40 NGY =   40 NGZ =  120
   dimension x,y,z NGXF=    80 NGYF=   80 NGZF=  240
   support grid    NGXF=    80 NGYF=   80 NGZF=  240
   ions per type =              24  32   8
   NGX,Y,Z   is equivalent  to a cutoff of   8.05,  8.05,  8.58 a.u.
   NGXF,Y,Z  is equivalent  to a cutoff of  16.10, 16.10, 17.15 a.u.

 SYSTEM =  unknown system                          
 POSCAR =  Ni  O                                   

 Startparameter for this run:
   NWRITE =      2    write-flag & timer
   PREC   = n         normal or accurate (medium, high low for compatibility)
   ISTART =      0    job   : 0-new  1-cont  2-samecut
   ICHARG =      2    charge: 1-file 2-atom 10-const
   ISPIN  =      2    spin polarized calculation?
   LNONCOLLINEAR =      F non collinear calculations
   LSORBIT =      F    spin-orbit coupling
   INIWAV =      1    electr: 0-lowe 1-rand  2-diag
   LASPH  =      T    aspherical Exc in radial PAW
 Electronic Relaxation 1
   ENCUT  =  400.0 eV  29.40 Ry    5.42 a.u.  13.47 13.47 37.93*2*pi/ulx,y,z
   ENINI  =  400.0     initial cutoff
   ENAUG  =  605.4 eV  augmentation charge cutoff
   NELM   =     60;   NELMIN=  2; NELMDL= -5     # of ELM steps 
   EDIFF  = 0.1E-04   stopping-criterion for ELM
   LREAL  =      T    real-space projection
   NLSPLINE    = F    spline interpolate recip. space projectors
   LCOMPAT=      F    compatible to vasp.4.4
   GGA_COMPAT  = T    GGA compatible to vasp.4.4-vasp.4.6
   LMAXPAW     = -100 max onsite density
   LMAXMIX     =    4 max onsite mixed and CHGCAR
   VOSKOWN=      0    Vosko Wilk Nusair interpolation
   ROPT   =   -0.00050  -0.00050  -0.00050
 Ionic relaxation
   EDIFFG = -.3E-01   stopping-criterion for IOM
   NSW    =    800    number of steps for IOM
   NBLOCK =      1;   KBLOCK =    800    inner block; outer block 
   IBRION =      2    ionic relax: 0-MD 1-quasi-New 2-CG
   NFREE  =      1    steps in history (QN), initial steepest desc. (CG)
   ISIF   =      2    stress and relaxation
   IWAVPR =     11    prediction:  0-non 1-charg 2-wave 3-comb
   ISYM   =      0    0-nonsym 1-usesym 2-fastsym
   LCORR  =      T    Harris-Foulkes like correction to forces

   POTIM  = 0.5000    time-step for ionic-motion
   TEIN   =    0.0    initial temperature
   TEBEG  =    0.0;   TEEND  =   0.0 temperature during run
   SMASS  =  -3.00    Nose mass-parameter (am)
   estimated Nose-frequenzy (Omega)   =  0.10E-29 period in steps = 0.13E+47 mass=  -0.156E-26a.u.
   SCALEE = 1.0000    scale energy and forces
   NPACO  =    256;   APACO  = 10.0  distance and # of slots for P.C.
   PSTRESS=    0.0 pullay stress

  Mass of Ions in am
   POMASS =  58.69 16.00 55.85
  Ionic Valenz
   ZVAL   =  10.00  6.00  8.00
  Atomic Wigner-Seitz radii
   RWIGS  =  -1.00 -1.00 -1.00
  virtual crystal weights 
   VCA    =   1.00  1.00  1.00
   NELECT =     496.0000    total number of electrons
   NUPDOWN=       0.0000    fix difference up-down

 DOS related values:
   EMIN   =  10.00;   EMAX   =-10.00  energy-range for DOS
   EFERMI =   0.00
   ISMEAR =     0;   SIGMA  =   0.05  broadening in eV -4-tet -1-fermi 0-gaus

 Electronic relaxation 2 (details)
   IALGO  =     68    algorithm
   LDIAG  =      T    sub-space diagonalisation (order eigenvalues)
   LSUBROT=      F    optimize rotation matrix (better conditioning)
   TURBO    =      0    0=normal 1=particle mesh
   IRESTART =      0    0=no restart 2=restart with 2 vectors
   NREBOOT  =      0    no. of reboots
   NMIN     =      0    reboot dimension
   EREF     =   0.00    reference energy to select bands
   IMIX   =      4    mixing-type and parameters
     AMIX     =   0.40;   BMIX     =  1.00
     AMIX_MAG =   1.60;   BMIX_MAG =  1.00
     AMIN     =   0.10
     WC   =   100.;   INIMIX=   1;  MIXPRE=   1;  MAXMIX= -45

 Intra band minimization:
   WEIMIN = 0.0010     energy-eigenvalue tresh-hold
   EBREAK =  0.83E-08  absolut break condition
   DEPER  =   0.30     relativ break condition  

   TIME   =   0.40     timestep for ELM

  volume/ion in A,a.u.               =      24.79       167.27
  Fermi-wavevector in a.u.,A,eV,Ry     =   1.111146  2.099761 16.798358  1.234644
  Thomas-Fermi vector in A             =   2.247705
 
 Write flags
   LWAVE        =      F    write WAVECAR
   LDOWNSAMPLE  =      F    k-point downsampling of WAVECAR
   LCHARG       =      F    write CHGCAR
   LVTOT        =      F    write LOCPOT, total local potential
   LVHAR        =      F    write LOCPOT, Hartree potential only
   LELF         =      F    write electronic localiz. function (ELF)
   LORBIT       =     11    0 simple, 1 ext, 2 COOP (PROOUT), +10 PAW based schemes


 Dipole corrections
   LMONO  =      F    monopole corrections only (constant potential shift)
   LDIPOL =      F    correct potential (dipole corrections)
   IDIPOL =      3    1-x, 2-y, 3-z, 4-all directions 
   EPSILON=  1.0000000 bulk dielectric constant

 LDA+U is selected, type is set to LDAUTYPE =  2
   angular momentum for each species LDAUL =     2   -1    2
   U (eV)           for each species LDAUU =   5.3  0.0  4.0
   J (eV)           for each species LDAUJ =   0.0  0.0  0.0
 Exchange correlation treatment:
   GGA     =    PE    GGA type
   LEXCH   =     8    internal setting for exchange type
   LIBXC   =     F    Libxc                    
   VOSKOWN =     0    Vosko Wilk Nusair interpolation
   LHFCALC =     F    Hartree Fock is set to
   LHFONE  =     F    Hartree Fock one center treatment
   AEXX    =    0.0000 exact exchange contribution

 Linear response parameters
   LEPSILON=     F    determine dielectric tensor
   LRPA    =     F    only Hartree local field effects (RPA)
   LNABLA  =     F    use nabla operator in PAW spheres
   LVEL    =     F    velocity operator in full k-point grid
   CSHIFT  =0.1000    complex shift for real part using Kramers Kronig
   OMEGAMAX=  -1.0    maximum frequency
   DEG_THRESHOLD= 0.2000000E-02 threshold for treating states as degnerate
   RTIME   =   -0.100 relaxation time in fs
  (WPLASMAI=    0.000 imaginary part of plasma frequency in eV, 0.658/RTIME)
   DFIELD  = 0.0000000 0.0000000 0.0000000 field for delta impulse in time
 
  Optional k-point grid parameters
   LKPOINTS_OPT  =     F    use optional k-point grid
   KPOINTS_OPT_MODE=     1    mode for optional k-point grid
 
 Orbital magnetization related:
   ORBITALMAG=     F  switch on orbital magnetization
   LCHIMAG   =     F  perturbation theory with respect to B field
   DQ        =  0.001000  dq finite difference perturbation B field
   LLRAUG    =     F  two centre corrections for induced B field



--------------------------------------------------------------------------------------------------------


 conjugate gradient relaxation of ions
 charge density and potential will be updated during run
 spin polarized calculation
 RMM-DIIS sequential band-by-band and
  variant of blocked Davidson during initial phase
 perform sub-space diagonalisation
    before iterative eigenvector-optimisation
 modified Broyden-mixing scheme, WC =      100.0
 initial mixing is a Kerker type mixing with AMIX =  0.4000 and BMIX =      1.0000
 Hartree-type preconditioning will be used
 using additional bands           52
 real space projection scheme for non local part
 use partial core corrections
 calculate Harris-corrections to forces 
   (improved forces if not selfconsistent)
 use gradient corrections 
 use of overlap-Matrix (Vanderbilt PP)
 Gauss-broadening in eV      SIGMA  =   0.05


--------------------------------------------------------------------------------------------------------


  energy-cutoff  :      400.00
  volume of cell :     1586.33
      direct lattice vectors                 reciprocal lattice vectors
     8.258574486  0.000000000  0.000000000     0.121086272  0.000000000  0.000000000
     0.000000000  8.258574486  0.000000000     0.000000000  0.121086272  0.000000000
     0.000000000  0.000000000 23.258575439     0.000000000  0.000000000  0.042994895

  length of vectors
     8.258574486  8.258574486 23.258575439     0.121086272  0.121086272  0.042994895


 
 k-points in units of 2pi/SCALE and weight: Auto-mesh                               
   0.00000000  0.00000000  0.00000000       0.111
   0.04036209  0.00000000  0.00000000       0.222
   0.00000000  0.04036209  0.00000000       0.222
   0.04036209  0.04036209  0.00000000       0.222
  -0.04036209  0.04036209  0.00000000       0.222
 
 k-points in reciprocal lattice and weights: Auto-mesh                               
   0.00000000  0.00000000  0.00000000       0.111
   0.33333333  0.00000000  0.00000000       0.222
   0.00000000  0.33333333  0.00000000       0.222
   0.33333333  0.33333333  0.00000000       0.222
  -0.33333333  0.33333333  0.00000000       0.222
 
 position of ions in fractional coordinates (direct lattice) 
   0.99955380  0.99955410  0.32094011
   0.24955381  0.74955416  0.32094011
   0.74955380  0.24955414  0.32094011
   0.00026176  0.75026143  0.05189840
   0.50026178  0.25026143  0.05189840
   0.75026178  0.00026144  0.05189840
   0.24984810  0.24984813  0.14064920
   0.99984807  0.49984816  0.14064920
   0.74984813  0.74984813  0.14064920
   0.25022680  0.00022675  0.23211554
   0.50022680  0.75022674  0.23211554
   0.75022680  0.50022674  0.23211554
   0.24955380  0.24955413  0.32094011
   0.99955380  0.49955413  0.32094011
   0.49955380  0.99955416  0.32094011
   0.00026177  0.25026143  0.05189839
   0.25026178  0.00026143  0.05189840
   0.75026178  0.50026143  0.05189839
   0.99984807  0.99984813  0.14064918
   0.24984808  0.74984813  0.14064920
   0.49984810  0.49984816  0.14064918
   0.00022679  0.75022674  0.23211554
   0.50022680  0.25022674  0.23211554
   0.75022680  0.00022675  0.23211554
   0.00025594  0.00025579  0.05035364
   0.24972881  0.99972898  0.32250839
   0.99972880  0.24972899  0.32250839
   0.25025597  0.25025579  0.05035364
   0.00032145  0.00032137  0.23158075
   0.24980323  0.99980330  0.14127545
   0.99980319  0.24980329  0.14127545
   0.25032145  0.25032136  0.23158076
   0.00025592  0.50025582  0.05035363
   0.24972880  0.49972901  0.32250836
   0.99972880  0.74972898  0.32250839
   0.25025594  0.75025576  0.05035364
   0.00032147  0.50032139  0.23158076
   0.24980323  0.49980327  0.14127545
   0.99980319  0.74980330  0.14127545
   0.25032145  0.75032139  0.23158075
   0.50025600  0.00025579  0.05035362
   0.74972880  0.99972898  0.32250839
   0.49972880  0.24972902  0.32250836
   0.75025594  0.25025579  0.05035363
   0.50032145  0.00032137  0.23158076
   0.74980319  0.99980330  0.14127545
   0.49980322  0.24980329  0.14127545
   0.75032145  0.25032139  0.23158076
   0.50025594  0.50025576  0.05035364
   0.74972880  0.49972901  0.32250839
   0.49972883  0.74972904  0.32250839
   0.75025594  0.75025576  0.05035362
   0.50032145  0.50032139  0.23158075
   0.74980319  0.49980330  0.14127545
   0.49980322  0.74980330  0.14127547
   0.75032145  0.75032139  0.23158076
   0.49955380  0.49955413  0.32094011
   0.25026175  0.50026143  0.05189842
   0.49984810  0.99984813  0.14064918
   0.00022680  0.25022677  0.23211554
   0.74955380  0.74955416  0.32094011
   0.50026178  0.75026143  0.05189841
   0.74984813  0.24984816  0.14064918
   0.25022680  0.50022674  0.23211554
 
 position of ions in cartesian coordinates  (Angst):
   8.25488951  8.25489197  7.46460969
   2.06095877  6.19024884  7.46460969
   6.19024588  2.06096147  7.46460969
   0.00216174  6.19608987  1.20708297
   4.13144920  2.06680263  1.20708297
   6.19609282  0.00215911  1.20708279
   2.06338912  2.06338937  3.27130002
   8.25731974  4.12803324  3.27130002
   6.19267661  6.19267661  3.27130002
   2.06651663  0.00187265  5.39867673
   4.13116025  6.19580338  5.39867673
   6.19580387  4.13115976  5.39867673
   2.06095864  2.06096135  7.46460969
   8.25488951  4.12560497  7.46460969
   4.12560226  8.25489246  7.46460969
   0.00216181  2.06680263  1.20708271
   2.06680558  0.00215906  1.20708288
   6.19609282  4.13144625  1.20708271
   8.25731974  8.25732023  3.27129967
   2.06338900  6.19267661  3.27130002
   4.12803275  4.12803324  3.27129967
   0.00187300  6.19580338  5.39867673
   4.13116025  2.06651614  5.39867673
   6.19580387  0.00187265  5.39867673
   0.00211366  0.00211247  1.17115391
   2.06240401  8.25633623  7.50108583
   8.25633475  2.06240549  7.50108583
   2.06675759  2.06675611  1.17115399
   0.00265472  0.00265405  5.38623833
   2.06301858  8.25695006  3.28586572
   8.25694908  2.06301908  3.28586572
   2.06729832  2.06729758  5.38623867
   0.00211350  4.13139998  1.17115373
   2.06240389  4.12704923  7.50108513
   8.25633475  6.19169261  7.50108583
   2.06675734  6.19604311  1.17115399
   0.00265487  4.13194145  5.38623867
   2.06301858  4.12766257  3.28586572
   8.25694908  6.19230644  3.28586572
   2.06729832  6.19658507  5.38623833
   4.13140145  0.00211249  1.17115339
   6.19169113  8.25633623  7.50108583
   4.12704751  2.06240573  7.50108513
   6.19604458  2.06675611  1.17115373
   4.13194194  0.00265405  5.38623867
   6.19230546  8.25695006  3.28586572
   4.12766208  2.06301908  3.28586572
   6.19658556  2.06729783  5.38623867
   4.13140096  4.13139948  1.17115382
   6.19169113  4.12704923  7.50108583
   4.12704775  6.19169310  7.50108583
   6.19604458  6.19604311  1.17115356
   4.13194194  4.13194145  5.38623833
   6.19230546  4.12766282  3.28586572
   4.12766208  6.19230644  3.28586607
   6.19658556  6.19658507  5.38623867
   4.12560226  4.12560497  7.46460969
   2.06680534  4.13144625  1.20708323
   4.12803275  8.25732023  3.27129967
   0.00187301  2.06651638  5.39867673
   6.19024588  6.19024884  7.46460969
   4.13144920  6.19608987  1.20708305
   6.19267661  2.06338962  3.27129967
   2.06651663  4.13115976  5.39867673
 


--------------------------------------------------------------------------------------------------------


 k-point   1 :   0.0000 0.0000 0.0000  plane waves:   28835
 k-point   2 :   0.3333 0.0000 0.0000  plane waves:   28837
 k-point   3 :   0.0000 0.3333 0.0000  plane waves:   28837
 k-point   4 :   0.3333 0.3333 0.0000  plane waves:   28797
 k-point   5 :  -0.3333 0.3333 0.0000  plane waves:   28797

 maximum and minimum number of plane-waves per node :      5800     5743

 maximum number of plane-waves:     28837
 maximum index in each direction: 
   IXMAX=   13   IYMAX=   13   IZMAX=   37
   IXMIN=  -13   IYMIN=  -13   IZMIN=  -37


 real space projection operators:
  total allocation   :       8541.91 KBytes
  max/ min on nodes  :       1793.22       1643.78


 parallel 3D FFT for wavefunctions:
    minimum data exchange during FFTs selected (reduces bandwidth)
 parallel 3D FFT for charge:
    minimum data exchange during FFTs selected (reduces bandwidth)


 total amount of memory used by VASP MPI-rank0   119523. kBytes
=======================================================================

   base      :      30000. kBytes
   nonlr-proj:       4127. kBytes
   fftplans  :       3778. kBytes
   grid      :       9886. kBytes
   one-center:        404. kBytes
   wavefun   :      71328. kBytes
 
     INWAV:  cpu time      0.0000: real time      0.0003
 Broyden mixing: mesh for mixing (old mesh)
   NGX = 27   NGY = 27   NGZ = 75
  (NGX  = 80   NGY  = 80   NGZ  =240)
  gives a total of  54675 points

 initial charge density was supplied:
 charge density of overlapping atoms calculated
 number of electron     496.0000000 magnetization      -0.0000000
 keeping initial charge density in first step


--------------------------------------------------------------------------------------------------------


 Maximum index for non-local projection operator          368
 Maximum index for augmentation-charges          321 (set IRDMAX)


--------------------------------------------------------------------------------------------------------


 First call to EWALD:  gamma=   0.152
 Maximum number of real-space cells 4x 4x 2
 Maximum number of reciprocal cells 2x 2x 5

    FEWALD:  cpu time      0.0041: real time      0.0041


--------------------------------------- Iteration      1(   1)  ---------------------------------------


    POTLOK:  cpu time      0.0990: real time      0.0992
    SETDIJ:  cpu time      1.6886: real time      1.6889
     EDDAV:  cpu time     13.0636: real time     13.0674
       DOS:  cpu time      0.0024: real time      0.0024
    --------------------------------------------
      LOOP:  cpu time     14.8535: real time     14.8580

 eigenvalue-minimisations  :  6000
 total energy-change (2. order) : 0.5204264E+04  (-0.1920182E+05)
 number of electron     496.0000000 magnetization      -0.0000000
 augmentation part      496.0000000 magnetization      -0.0000000

 Free energy of the ion-electron system (eV)
  ---------------------------------------------------
  alpha Z        PSCENC =       830.52252633
  Ewald energy   TEWEN  =    228511.24919633
  -Hartree energ DENC   =   -271147.49212007
  -exchange      EXHF   =         0.00000000
  -V(xc)+E(xc)   XCENC  =      1687.58078968
  PAW double counting   =     38612.59811270   -39779.25867021
  entropy T*S    EENTRO =        -0.02843078
  eigenvalues    EBANDS =      2038.28623184
  atomic energy  EATOM  =     44450.80657341
  Solvation  Ediel_sol  =         0.00000000
  ---------------------------------------------------
  free energy    TOTEN  =      5204.26420923 eV

  energy without entropy =     5204.29264001  energy(sigma->0) =     5204.27842462


--------------------------------------------------------------------------------------------------------




--------------------------------------- Iteration      1(   2)  ---------------------------------------


     EDDAV:  cpu time     13.4729: real time     13.4778
       DOS:  cpu time      0.0025: real time      0.0025
    --------------------------------------------
      LOOP:  cpu time     13.4755: real time     13.4804

 eigenvalue-minimisations  :  6272
 total energy-change (2. order) :-0.4247658E+04  (-0.3918765E+04)
 number of electron     496.0000000 magnetization      -0.0000000
 augmentation part      496.0000000 magnetization      -0.0000000

 Free energy of the ion-electron system (eV)
  ---------------------------------------------------
  alpha Z        PSCENC =       830.52252633
  Ewald energy   TEWEN  =    228511.24919633
  -Hartree energ DENC   =   -271147.49212007
  -exchange      EXHF   =         0.00000000
  -V(xc)+E(xc)   XCENC  =      1687.58078968
  PAW double counting   =     38612.59811270   -39779.25867021
  entropy T*S    EENTRO =        -0.02246075
  eigenvalues    EBANDS =     -2209.37809752
  atomic energy  EATOM  =     44450.80657341
  Solvation  Ediel_sol  =         0.00000000
  ---------------------------------------------------
  free energy    TOTEN  =       956.60584991 eV

  energy without entropy =      956.62831065  energy(sigma->0) =      956.61708028


--------------------------------------------------------------------------------------------------------




--------------------------------------- Iteration      1(   3)  ---------------------------------------


     EDDAV:  cpu time     17.0827: real time     17.0913
       DOS:  cpu time      0.0024: real time      0.0024
    --------------------------------------------
      LOOP:  cpu time     17.0851: real time     17.0937

 eigenvalue-minimisations  :  8448
 total energy-change (2. order) :-0.1186722E+04  (-0.1114936E+04)
 number of electron     496.0000000 magnetization      -0.0000000
 augmentation part      496.0000000 magnetization      -0.0000000

 Free energy of the ion-electron system (eV)
  ---------------------------------------------------
  alpha Z        PSCENC =       830.52252633
  Ewald energy   TEWEN  =    228511.24919633
  -Hartree energ DENC   =   -271147.49212007
  -exchange      EXHF   =         0.00000000
  -V(xc)+E(xc)   XCENC  =      1687.58078968
  PAW double counting   =     38612.59811270   -39779.25867021
  entropy T*S    EENTRO =        -0.05701981
  eigenvalues    EBANDS =     -3396.06595190
  atomic energy  EATOM  =     44450.80657341
  Solvation  Ediel_sol  =         0.00000000
  ---------------------------------------------------
  free energy    TOTEN  =      -230.11656354 eV

  energy without entropy =     -230.05954373  energy(sigma->0) =     -230.08805364


--------------------------------------------------------------------------------------------------------




--------------------------------------- Iteration      1(   4)  ---------------------------------------


     EDDAV:  cpu time     15.5718: real time     15.5773
       DOS:  cpu time      0.0025: real time      0.0025
    --------------------------------------------
      LOOP:  cpu time     15.5742: real time     15.5798

 eigenvalue-minimisations  :  7528
 total energy-change (2. order) :-0.1450649E+03  (-0.1394419E+03)
 number of electron     496.0000000 magnetization      -0.0000000
 augmentation part      496.0000000 magnetization      -0.0000000

 Free energy of the ion-electron system (eV)
  ---------------------------------------------------
  alpha Z        PSCENC =       830.52252633
  Ewald energy   TEWEN  =    228511.24919633
  -Hartree energ DENC   =   -271147.49212007
  -exchange      EXHF   =         0.00000000
  -V(xc)+E(xc)   XCENC  =      1687.58078968
  PAW double counting   =     38612.59811270   -39779.25867021
  entropy T*S    EENTRO =        -0.07093380
  eigenvalues    EBANDS =     -3541.11697848
  atomic energy  EATOM  =     44450.80657341
  Solvation  Ediel_sol  =         0.00000000
  ---------------------------------------------------
  free energy    TOTEN  =      -375.18150411 eV

  energy without entropy =     -375.11057031  energy(sigma->0) =     -375.14603721


--------------------------------------------------------------------------------------------------------




--------------------------------------- Iteration      1(   5)  ---------------------------------------


     EDDAV:  cpu time     17.1552: real time     17.1629
       DOS:  cpu time      0.0026: real time      0.0026
    CHARGE:  cpu time      0.4255: real time      0.4257
    MIXING:  cpu time      0.0031: real time      0.0031
    --------------------------------------------
      LOOP:  cpu time     17.5864: real time     17.5943

 eigenvalue-minimisations  :  8512
 total energy-change (2. order) :-0.6232180E+01  (-0.6166972E+01)
 number of electron     495.9999738 magnetization      -0.0000001
 augmentation part      197.1239484 magnetization      -0.0070882

 Broyden mixing:
  rms(total) = 0.93104E+01    rms(broyden)= 0.92902E+01
  rms(prec ) = 0.95885E+01
  weight for this iteration     100.00

 Free energy of the ion-electron system (eV)
  ---------------------------------------------------
  alpha Z        PSCENC =       830.52252633
  Ewald energy   TEWEN  =    228511.24919633
  -Hartree energ DENC   =   -271147.49212007
  -exchange      EXHF   =         0.00000000
  -V(xc)+E(xc)   XCENC  =      1687.58078968
  PAW double counting   =     38612.59811270   -39779.25867021
  entropy T*S    EENTRO =        -0.07000141
  eigenvalues    EBANDS =     -3547.35009132
  atomic energy  EATOM  =     44450.80657341
  Solvation  Ediel_sol  =         0.00000000
  ---------------------------------------------------
  free energy    TOTEN  =      -381.41368456 eV

  energy without entropy =     -381.34368314  energy(sigma->0) =     -381.37868385


--------------------------------------------------------------------------------------------------------




--------------------------------------- Iteration      1(   6)  ---------------------------------------


    POTLOK:  cpu time      0.0959: real time      0.0975
    SETDIJ:  cpu time      1.7095: real time      1.7099
    EDDIAG:  cpu time      1.9639: real time      1.9643
  RMM-DIIS:  cpu time      5.5683: real time      5.5699
    ORTHCH:  cpu time      0.5675: real time      0.5677
       DOS:  cpu time      0.0025: real time      0.0025
    CHARGE:  cpu time      0.4187: real time      0.4187
    MIXING:  cpu time      0.0031: real time      0.0031
    --------------------------------------------
      LOOP:  cpu time     10.3295: real time     10.3335

 eigenvalue-minimisations  :  6081
 total energy-change (2. order) : 0.4458414E+02  (-0.6868471E+02)
 number of electron     495.9999610 magnetization      -0.0000000
 augmentation part      210.9594234 magnetization       0.0069449

 Broyden mixing:
  rms(total) = 0.14404E+02    rms(broyden)= 0.14401E+02
  rms(prec ) = 0.14509E+02
  weight for this iteration     100.00

 eigenvalues of (default mixing * dielectric matrix)
  average eigenvalue GAMMA=   0.1723
  0.1723

 Free energy of the ion-electron system (eV)
  ---------------------------------------------------
  alpha Z        PSCENC =       830.52252633
  Ewald energy   TEWEN  =    228511.24919633
  -Hartree energ DENC   =   -271196.06988192
  -exchange      EXHF   =         0.00000000
  -V(xc)+E(xc)   XCENC  =      1727.71433059
  PAW double counting   =     41998.53638556   -43002.45874961
  entropy T*S    EENTRO =        -0.08271337
  eigenvalues    EBANDS =     -3657.04720693
  atomic energy  EATOM  =     44450.80657341
  Solvation  Ediel_sol  =         0.00000000
  ---------------------------------------------------
  free energy    TOTEN  =      -336.82953961 eV

  energy without entropy =     -336.74682624  energy(sigma->0) =     -336.78818293


--------------------------------------------------------------------------------------------------------




--------------------------------------- Iteration      1(   7)  ---------------------------------------


    POTLOK:  cpu time      0.0982: real time      0.0997
    SETDIJ:  cpu time      1.7081: real time      1.7084
    EDDIAG:  cpu time      1.9537: real time      1.9542
  RMM-DIIS:  cpu time      6.7607: real time      6.7625
    ORTHCH:  cpu time      0.5674: real time      0.5674
       DOS:  cpu time      0.0023: real time      0.0023
    CHARGE:  cpu time      0.4152: real time      0.4153
    MIXING:  cpu time      0.0032: real time      0.0032
    --------------------------------------------
      LOOP:  cpu time     11.5086: real time     11.5130

 eigenvalue-minimisations  :  7413
 total energy-change (2. order) :-0.5898056E+01  (-0.1581857E+02)
 number of electron     495.9999735 magnetization      -0.0000004
 augmentation part      206.3777318 magnetization      -0.0127129

 Broyden mixing:
  rms(total) = 0.88037E+01    rms(broyden)= 0.88009E+01
  rms(prec ) = 0.89175E+01
  weight for this iteration     100.00

 eigenvalues of (default mixing * dielectric matrix)
  average eigenvalue GAMMA=   0.3846
  0.3846  0.3846

 Free energy of the ion-electron system (eV)
  ---------------------------------------------------
  alpha Z        PSCENC =       830.52252633
  Ewald energy   TEWEN  =    228511.24919633
  -Hartree energ DENC   =   -271251.00006729
  -exchange      EXHF   =         0.00000000
  -V(xc)+E(xc)   XCENC  =      1718.61108050
  PAW double counting   =     42722.94717975   -43768.56199887
  entropy T*S    EENTRO =        -0.01883493
  eigenvalues    EBANDS =     -3557.28325075
  atomic energy  EATOM  =     44450.80657341
  Solvation  Ediel_sol  =         0.00000000
  ---------------------------------------------------
  free energy    TOTEN  =      -342.72759553 eV

  energy without entropy =     -342.70876059  energy(sigma->0) =     -342.71817806


--------------------------------------------------------------------------------------------------------




--------------------------------------- Iteration      1(   8)  ---------------------------------------


    POTLOK:  cpu time      0.0978: real time      0.1019
    SETDIJ:  cpu time      1.7094: real time      1.7098
    EDDIAG:  cpu time      1.9659: real time      1.9666
  RMM-DIIS:  cpu time      6.0630: real time      6.0670
    ORTHCH:  cpu time      0.5676: real time      0.5678
       DOS:  cpu time      0.0024: real time      0.0024
    CHARGE:  cpu time      0.4111: real time      0.4113
    MIXING:  cpu time      0.0034: real time      0.0034
    --------------------------------------------
      LOOP:  cpu time     10.8208: real time     10.8302

 eigenvalue-minimisations  :  6634
 total energy-change (2. order) :-0.6427948E+02  (-0.7345154E+01)
 number of electron     495.9999738 magnetization      -0.0000005
 augmentation part      205.6492753 magnetization       0.2084404

 Broyden mixing:
  rms(total) = 0.14316E+02    rms(broyden)= 0.14315E+02
  rms(prec ) = 0.14945E+02
  weight for this iteration     100.00

 eigenvalues of (default mixing * dielectric matrix)
  average eigenvalue GAMMA=   0.3811
  0.4769  0.4769  0.1896

 Free energy of the ion-electron system (eV)
  ---------------------------------------------------
  alpha Z        PSCENC =       830.52252633
  Ewald energy   TEWEN  =    228511.24919633
  -Hartree energ DENC   =   -271176.33289429
  -exchange      EXHF   =         0.00000000
  -V(xc)+E(xc)   XCENC  =      1717.84574038
  PAW double counting   =     44049.18608467   -45136.74244310
  entropy T*S    EENTRO =        -0.02813343
  eigenvalues    EBANDS =     -3653.51372847
  atomic energy  EATOM  =     44450.80657341
  Solvation  Ediel_sol  =         0.00000000
  ---------------------------------------------------
  free energy    TOTEN  =      -407.00707818 eV

  energy without entropy =     -406.97894474  energy(sigma->0) =     -406.99301146


--------------------------------------------------------------------------------------------------------




--------------------------------------- Iteration      1(   9)  ---------------------------------------


    POTLOK:  cpu time      0.0981: real time      0.0996
    SETDIJ:  cpu time      1.7135: real time      1.7138
    EDDIAG:  cpu time      1.9634: real time      1.9638
  RMM-DIIS:  cpu time      5.5852: real time      5.5866
    ORTHCH:  cpu time      0.5674: real time      0.5676
       DOS:  cpu time      0.0019: real time      0.0019
    CHARGE:  cpu time      0.4081: real time      0.4081
    MIXING:  cpu time      0.0036: real time      0.0036
    --------------------------------------------
      LOOP:  cpu time     10.3411: real time     10.3449

 eigenvalue-minimisations  :  6127
 total energy-change (2. order) : 0.6600971E+02  (-0.5351369E+01)
 number of electron     495.9999750 magnetization      -0.0000012
 augmentation part      204.9948807 magnetization      -0.0145046

 Broyden mixing:
  rms(total) = 0.68829E+01    rms(broyden)= 0.68796E+01
  rms(prec ) = 0.69809E+01
  weight for this iteration     100.00

 eigenvalues of (default mixing * dielectric matrix)
  average eigenvalue GAMMA=   0.5650
  0.8690  0.8690  0.3583  0.1639

 Free energy of the ion-electron system (eV)
  ---------------------------------------------------
  alpha Z        PSCENC =       830.52252633
  Ewald energy   TEWEN  =    228511.24919633
  -Hartree energ DENC   =   -271211.34861528
  -exchange      EXHF   =         0.00000000
  -V(xc)+E(xc)   XCENC  =      1708.71777605
  PAW double counting   =     44763.65396908   -45872.09330963
  entropy T*S    EENTRO =        -0.00378251
  eigenvalues    EBANDS =     -3522.50170538
  atomic energy  EATOM  =     44450.80657341
  Solvation  Ediel_sol  =         0.00000000
  ---------------------------------------------------
  free energy    TOTEN  =      -340.99737160 eV

  energy without entropy =     -340.99358909  energy(sigma->0) =     -340.99548034


--------------------------------------------------------------------------------------------------------




--------------------------------------- Iteration      1(  10)  ---------------------------------------


    POTLOK:  cpu time      0.0979: real time      0.0994
    SETDIJ:  cpu time      1.7130: real time      1.7134
    EDDIAG:  cpu time      1.9649: real time      1.9653
  RMM-DIIS:  cpu time      5.8439: real time      5.8454
    ORTHCH:  cpu time      0.5671: real time      0.5673
       DOS:  cpu time      0.0025: real time      0.0025
    CHARGE:  cpu time      0.4121: real time      0.4121
    MIXING:  cpu time      0.0039: real time      0.0039
    --------------------------------------------
      LOOP:  cpu time     10.6054: real time     10.6094

 eigenvalue-minimisations  :  6400
 total energy-change (2. order) :-0.2713349E+02  (-0.2211192E+01)
 number of electron     495.9999733 magnetization      -0.0000014
 augmentation part      204.2104172 magnetization       0.0409922

 Broyden mixing:
  rms(total) = 0.10459E+02    rms(broyden)= 0.10457E+02
  rms(prec ) = 0.11207E+02
  weight for this iteration     100.00

 eigenvalues of (default mixing * dielectric matrix)
  average eigenvalue GAMMA=   0.6254
  1.5634  0.5255  0.5255  0.3623  0.1503

 Free energy of the ion-electron system (eV)
  ---------------------------------------------------
  alpha Z        PSCENC =       830.52252633
  Ewald energy   TEWEN  =    228511.24919633
  -Hartree energ DENC   =   -271217.57827465
  -exchange      EXHF   =         0.00000000
  -V(xc)+E(xc)   XCENC  =      1711.03694905
  PAW double counting   =     47190.12401454   -48342.52525052
  entropy T*S    EENTRO =        -0.02841825
  eigenvalues    EBANDS =     -3501.73817721
  atomic energy  EATOM  =     44450.80657341
  Solvation  Ediel_sol  =         0.00000000
  ---------------------------------------------------
  free energy    TOTEN  =      -368.13086095 eV

  energy without entropy =     -368.10244271  energy(sigma->0) =     -368.11665183


--------------------------------------------------------------------------------------------------------




--------------------------------------- Iteration      1(  11)  ---------------------------------------


    POTLOK:  cpu time      0.0979: real time      0.1018
    SETDIJ:  cpu time      1.7119: real time      1.7122
    EDDIAG:  cpu time      1.9587: real time      1.9591
  RMM-DIIS:  cpu time      5.7238: real time      5.7251
    ORTHCH:  cpu time      0.5675: real time      0.5675
       DOS:  cpu time      0.0023: real time      0.0023
    CHARGE:  cpu time      0.4131: real time      0.4132
    MIXING:  cpu time      0.0041: real time      0.0041
    --------------------------------------------
      LOOP:  cpu time     10.4793: real time     10.4854

 eigenvalue-minimisations  :  6257
 total energy-change (2. order) : 0.2922976E+02  (-0.1871495E+01)
 number of electron     495.9999814 magnetization      -0.0000014
 augmentation part      204.1077430 magnetization      -0.0689446

 Broyden mixing:
  rms(total) = 0.53149E+01    rms(broyden)= 0.53108E+01
  rms(prec ) = 0.56469E+01
  weight for this iteration     100.00

 eigenvalues of (default mixing * dielectric matrix)
  average eigenvalue GAMMA=   0.5767
  1.6723  0.4911  0.4911  0.4154  0.1539  0.2366

 Free energy of the ion-electron system (eV)
  ---------------------------------------------------
  alpha Z        PSCENC =       830.52252633
  Ewald energy   TEWEN  =    228511.24919633
  -Hartree energ DENC   =   -271295.32589162
  -exchange      EXHF   =         0.00000000
  -V(xc)+E(xc)   XCENC  =      1706.63945020
  PAW double counting   =     48146.56000779   -49323.01883401
  entropy T*S    EENTRO =        -0.01945836
  eigenvalues    EBANDS =     -3366.31467499
  atomic energy  EATOM  =     44450.80657341
  Solvation  Ediel_sol  =         0.00000000
  ---------------------------------------------------
  free energy    TOTEN  =      -338.90110491 eV

  energy without entropy =     -338.88164655  energy(sigma->0) =     -338.89137573


--------------------------------------------------------------------------------------------------------




--------------------------------------- Iteration      1(  12)  ---------------------------------------


    POTLOK:  cpu time      0.0985: real time      0.1001
    SETDIJ:  cpu time      1.7120: real time      1.7123
    EDDIAG:  cpu time      1.9607: real time      1.9611
  RMM-DIIS:  cpu time      5.6151: real time      5.6165
    ORTHCH:  cpu time      0.5676: real time      0.5678
       DOS:  cpu time      0.0023: real time      0.0023
    CHARGE:  cpu time      0.4183: real time      0.4184
    MIXING:  cpu time      0.0043: real time      0.0043
    --------------------------------------------
      LOOP:  cpu time     10.3789: real time     10.3827

 eigenvalue-minimisations  :  6176
 total energy-change (2. order) : 0.5048517E+01  (-0.9890994E+00)
 number of electron     495.9999737 magnetization      -0.0000018
 augmentation part      204.0622496 magnetization       0.1196955

 Broyden mixing:
  rms(total) = 0.39361E+01    rms(broyden)= 0.39332E+01
  rms(prec ) = 0.41559E+01
  weight for this iteration     100.00

 eigenvalues of (default mixing * dielectric matrix)
  average eigenvalue GAMMA=   0.5883
  1.8422  0.6528  0.4917  0.4917  0.3456  0.1548  0.1395

 Free energy of the ion-electron system (eV)
  ---------------------------------------------------
  alpha Z        PSCENC =       830.52252633
  Ewald energy   TEWEN  =    228511.24919633
  -Hartree energ DENC   =   -271336.54724802
  -exchange      EXHF   =         0.00000000
  -V(xc)+E(xc)   XCENC  =      1707.13265959
  PAW double counting   =     48372.19636155   -49553.17368762
  entropy T*S    EENTRO =        -0.04591435
  eigenvalues    EBANDS =     -3315.99305541
  atomic energy  EATOM  =     44450.80657341
  Solvation  Ediel_sol  =         0.00000000
  ---------------------------------------------------
  free energy    TOTEN  =      -333.85258819 eV

  energy without entropy =     -333.80667384  energy(sigma->0) =     -333.82963102


--------------------------------------------------------------------------------------------------------




--------------------------------------- Iteration      1(  13)  ---------------------------------------


    POTLOK:  cpu time      0.0978: real time      0.0994
    SETDIJ:  cpu time      1.7140: real time      1.7143
    EDDIAG:  cpu time      1.9597: real time      1.9601
  RMM-DIIS:  cpu time      5.7275: real time      5.7291
    ORTHCH:  cpu time      0.5687: real time      0.5687
       DOS:  cpu time      0.0022: real time      0.0022
    CHARGE:  cpu time      0.4134: real time      0.4136
    MIXING:  cpu time      0.0047: real time      0.0047
    --------------------------------------------
      LOOP:  cpu time     10.4879: real time     10.4919

 eigenvalue-minimisations  :  6236
 total energy-change (2. order) :-0.1822006E+00  (-0.5751415E+00)
 number of electron     495.9999809 magnetization      -0.0000020
 augmentation part      204.1905612 magnetization      -0.0285174

 Broyden mixing:
  rms(total) = 0.33978E+01    rms(broyden)= 0.33959E+01
  rms(prec ) = 0.35934E+01
  weight for this iteration     100.00

 eigenvalues of (default mixing * dielectric matrix)
  average eigenvalue GAMMA=   0.5622
  1.9345  0.6617  0.5320  0.5320  0.3400  0.2122  0.1443  0.1410

 Free energy of the ion-electron system (eV)
  ---------------------------------------------------
  alpha Z        PSCENC =       830.52252633
  Ewald energy   TEWEN  =    228511.24919633
  -Hartree energ DENC   =   -271405.30912917
  -exchange      EXHF   =         0.00000000
  -V(xc)+E(xc)   XCENC  =      1709.56934894
  PAW double counting   =     48681.23781029   -49870.26269836
  entropy T*S    EENTRO =        -0.00854549
  eigenvalues    EBANDS =     -3241.83987107
  atomic energy  EATOM  =     44450.80657341
  Solvation  Ediel_sol  =         0.00000000
  ---------------------------------------------------
  free energy    TOTEN  =      -334.03478880 eV

  energy without entropy =     -334.02624330  energy(sigma->0) =     -334.03051605


--------------------------------------------------------------------------------------------------------




--------------------------------------- Iteration      1(  14)  ---------------------------------------


    POTLOK:  cpu time      0.0979: real time      0.1015
    SETDIJ:  cpu time      1.7117: real time      1.7120
    EDDIAG:  cpu time      1.9608: real time      1.9612
  RMM-DIIS:  cpu time      5.6299: real time      5.6311
    ORTHCH:  cpu time      0.5698: real time      0.5700
       DOS:  cpu time      0.0022: real time      0.0022
    CHARGE:  cpu time      0.4153: real time      0.4153
    MIXING:  cpu time      0.0049: real time      0.0049
    --------------------------------------------
      LOOP:  cpu time     10.3925: real time     10.3982

 eigenvalue-minimisations  :  6177
 total energy-change (2. order) : 0.1034480E+01  (-0.3930940E+00)
 number of electron     495.9999731 magnetization      -0.0000022
 augmentation part      203.9849726 magnetization      -0.0540419

 Broyden mixing:
  rms(total) = 0.25561E+01    rms(broyden)= 0.25532E+01
  rms(prec ) = 0.27135E+01
  weight for this iteration     100.00

 eigenvalues of (default mixing * dielectric matrix)
  average eigenvalue GAMMA=   0.5564
  2.0262  0.6566  0.5962  0.5962  0.3217  0.3217  0.2214  0.1520  0.1158

 Free energy of the ion-electron system (eV)
  ---------------------------------------------------
  alpha Z        PSCENC =       830.52252633
  Ewald energy   TEWEN  =    228511.24919633
  -Hartree energ DENC   =   -271412.10008195
  -exchange      EXHF   =         0.00000000
  -V(xc)+E(xc)   XCENC  =      1709.76968956
  PAW double counting   =     48780.51094660   -49973.73835357
  entropy T*S    EENTRO =        -0.01636786
  eigenvalues    EBANDS =     -3230.00443752
  atomic energy  EATOM  =     44450.80657341
  Solvation  Ediel_sol  =         0.00000000
  ---------------------------------------------------
  free energy    TOTEN  =      -333.00030868 eV

  energy without entropy =     -332.98394081  energy(sigma->0) =     -332.99212474


--------------------------------------------------------------------------------------------------------




--------------------------------------- Iteration      1(  15)  ---------------------------------------


    POTLOK:  cpu time      0.0975: real time      0.0993
    SETDIJ:  cpu time      1.7119: real time      1.7121
    EDDIAG:  cpu time      1.9623: real time      1.9629
  RMM-DIIS:  cpu time      5.7919: real time      5.7934
    ORTHCH:  cpu time      0.5676: real time      0.5678
       DOS:  cpu time      0.0024: real time      0.0024
[...]
   0.906E+00 -.412E+01 0.190E+04   -.437E+00 0.421E+01 -.191E+04   -.470E+00 -.799E-01 0.645E+01   -.273E-03 0.195E-03 -.551E-04
   -.149E+00 -.243E+01 -.190E+04   0.725E+00 0.213E+01 0.191E+04   -.577E+00 0.307E+00 -.627E+01   0.628E-03 -.756E-04 0.731E-03
   0.205E+01 -.122E+02 -.186E+04   -.229E+01 0.120E+02 0.187E+04   0.238E+00 0.133E+00 -.758E+01   0.212E-03 -.537E-03 0.314E-03
   -.135E+02 -.469E+02 0.190E+04   0.143E+02 0.470E+02 -.191E+04   -.849E+00 -.149E+00 0.625E+01   0.319E-03 0.306E-04 0.198E-03
   0.778E+01 -.580E+02 -.607E+03   -.732E+01 0.587E+02 0.606E+03   -.455E+00 -.639E+00 0.125E+01   -.162E-04 0.145E-03 0.895E-04
   -.607E+02 -.444E+01 0.615E+03   0.610E+02 0.467E+01 -.614E+03   -.288E+00 -.228E+00 -.133E+01   0.564E-04 -.200E-03 -.289E-03
   0.442E+02 -.115E+02 0.564E+03   -.450E+02 0.110E+02 -.564E+03   0.794E+00 0.538E+00 -.168E+00   0.613E-03 0.179E-03 -.553E-03
   0.401E+02 -.627E+02 -.611E+03   -.406E+02 0.628E+02 0.610E+03   0.473E+00 -.839E-01 0.155E+01   -.309E-03 -.792E-06 -.219E-03
   -.433E+02 0.234E+01 0.190E+04   0.437E+02 -.214E+01 -.191E+04   -.342E+00 -.202E+00 0.646E+01   0.131E-02 -.578E-03 -.159E-03
   -.399E+02 0.200E+01 -.190E+04   0.392E+02 -.179E+01 0.191E+04   0.730E+00 -.207E+00 -.696E+01   -.260E-04 0.169E-03 -.217E-03
   0.448E+02 0.140E+02 -.190E+04   -.449E+02 -.142E+02 0.191E+04   0.170E+00 0.207E+00 -.599E+01   0.337E-03 0.127E-02 0.190E-03
   -.521E+02 0.487E+02 0.190E+04   0.512E+02 -.492E+02 -.191E+04   0.888E+00 0.512E+00 0.563E+01   -.262E-03 -.385E-03 -.668E-03
   -.378E+02 0.579E+02 -.620E+03   0.371E+02 -.584E+02 0.619E+03   0.771E+00 0.451E+00 0.125E+01   -.566E-03 0.402E-04 -.413E-03
   -.120E+02 0.301E+01 0.639E+03   0.121E+02 -.336E+01 -.639E+03   -.111E+00 0.347E+00 -.844E+00   0.552E-04 0.516E-03 -.688E-03
   -.821E+01 0.129E+02 0.617E+03   0.789E+01 -.126E+02 -.616E+03   0.326E+00 -.318E+00 -.163E+01   0.399E-03 -.137E-03 -.456E-03
   -.140E+02 0.627E+02 -.607E+03   0.140E+02 -.628E+02 0.605E+03   0.156E-01 0.115E+00 0.127E+01   0.143E-03 0.162E-03 0.260E-03
   -.197E+01 0.482E+02 0.191E+04   0.173E+01 -.485E+02 -.191E+04   0.248E+00 0.379E+00 0.706E+01   0.248E-03 -.702E-03 -.288E-03
   0.121E+01 0.407E+02 -.190E+04   -.198E+01 -.409E+02 0.191E+04   0.767E+00 0.257E+00 -.615E+01   -.117E-02 -.364E-03 0.838E-03
   -.105E+01 -.585E+02 -.191E+04   0.108E+01 0.582E+02 0.191E+04   -.220E-01 0.208E+00 -.604E+01   -.438E-03 -.676E-03 0.105E-02
   0.128E+02 -.332E+01 0.186E+04   -.135E+02 0.380E+01 -.186E+04   0.689E+00 -.488E+00 0.756E+01   -.116E-03 -.688E-03 -.783E-03
   -.854E+01 -.211E+01 -.590E+03   0.820E+01 0.224E+01 0.589E+03   0.341E+00 -.124E+00 0.143E+01   0.137E-03 0.165E-03 0.108E-03
   0.615E+02 -.543E+02 0.616E+03   -.618E+02 0.547E+02 -.615E+03   0.300E+00 -.359E+00 -.138E+01   -.276E-03 0.105E-02 -.812E-03
   -.440E+02 0.298E+02 0.614E+03   0.445E+02 -.288E+02 -.613E+03   -.519E+00 -.102E+01 -.129E+01   -.362E-03 -.180E-03 0.289E-03
   -.415E+02 -.105E+02 -.574E+03   0.423E+02 0.106E+02 0.574E+03   -.780E+00 -.106E+00 0.156E+00   0.829E-04 -.150E-03 0.145E-02
   0.445E+02 -.520E+02 0.189E+04   -.451E+02 0.532E+02 -.190E+04   0.620E+00 -.131E+01 0.569E+01   -.722E-03 0.519E-03 0.344E-04
   0.432E+02 -.409E+02 -.190E+04   -.432E+02 0.412E+02 0.190E+04   0.711E-01 -.332E+00 -.571E+01   0.427E-03 0.162E-03 0.620E-03
   -.450E+02 0.619E+02 -.190E+04   0.453E+02 -.624E+02 0.190E+04   -.281E+00 0.460E+00 -.581E+01   -.439E-03 0.950E-04 0.911E-03
   0.500E+02 0.232E+01 0.190E+04   -.486E+02 -.261E+01 -.191E+04   -.137E+01 0.293E+00 0.570E+01   0.315E-03 0.487E-03 -.103E-03
   0.380E+02 0.368E+01 -.645E+03   -.371E+02 -.369E+01 0.645E+03   -.916E+00 0.116E-01 -.233E+00   0.272E-03 0.393E-04 -.286E-04
   0.111E+02 0.539E+02 0.596E+03   -.114E+02 -.543E+02 -.595E+03   0.295E+00 0.409E+00 -.121E+01   0.663E-03 -.570E-03 0.759E-03
   0.667E+01 -.291E+02 0.646E+03   -.638E+01 0.278E+02 -.647E+03   -.288E+00 0.132E+01 0.312E+00   -.487E-03 -.469E-03 -.988E-04
   0.143E+02 0.978E+01 -.654E+03   -.142E+02 -.976E+01 0.653E+03   -.191E+00 -.232E-01 0.789E+00   -.347E-03 0.222E-03 -.273E-03
   -.124E+02 -.224E+02 -.252E+04   0.122E+02 0.223E+02 0.252E+04   0.282E+00 0.928E-01 0.273E+01   0.177E-03 0.133E-04 0.113E-03
   -.252E+02 -.255E+02 0.253E+04   0.252E+02 0.252E+02 -.252E+04   0.639E-01 0.361E+00 -.407E+01   -.253E-03 0.585E-03 -.511E-03
   -.177E+02 -.336E+01 0.863E+03   0.175E+02 0.313E+01 -.863E+03   0.227E+00 0.228E+00 0.222E+00   0.225E-03 -.121E-03 -.170E-03
   0.432E+01 -.316E+02 -.813E+03   -.420E+01 0.313E+02 0.814E+03   -.117E+00 0.325E+00 -.993E+00   0.612E-03 -.380E-03 -.614E-03
   0.216E+02 0.296E+02 -.252E+04   -.214E+02 -.292E+02 0.251E+04   -.186E+00 -.357E+00 0.339E+01   -.743E-03 0.647E-03 0.279E-03
   0.222E+02 0.154E+02 0.252E+04   -.219E+02 -.153E+02 -.252E+04   -.247E+00 -.677E-01 -.272E+01   -.253E-04 -.250E-03 0.173E-03
   0.105E+02 0.979E+01 0.805E+03   -.106E+02 -.962E+01 -.806E+03   0.597E-01 -.170E+00 0.979E+00   -.121E-03 -.312E-03 0.139E-03
   -.378E+01 0.216E+02 -.851E+03   0.417E+01 -.214E+02 0.851E+03   -.397E+00 -.225E+00 0.988E-01   0.357E-03 -.195E-03 -.122E-02
 -----------------------------------------------------------------------------------------------
   -.121E+00 -.358E+00 -.105E+00   0.734E-12 0.224E-12 0.261E-11   0.161E+00 0.413E+00 0.288E+00   -.725E-03 0.143E-03 -.237E-02
 
 
 POSITION                                       TOTAL-FORCE (eV/Angst)
 -----------------------------------------------------------------------------------
      0.00088      8.25175      7.49252         0.004254      0.004202      0.002041
      2.05032      6.20516      7.50385        -0.002035      0.013091     -0.005690
      6.19258      2.05001      7.50185        -0.004929     -0.001054      0.011005
      0.00253      6.20184      1.17564        -0.008875      0.014993      0.000470
      4.13045      2.06722      1.13998         0.016850      0.017078     -0.011462
      6.20379      0.00547      1.16361         0.003906     -0.006224     -0.007869
      2.06554      2.06350      3.24297         0.008600      0.006706      0.004644
      0.00133      4.13623      3.24568        -0.013049      0.010258      0.004440
      6.19683      6.18835      3.26494        -0.003609     -0.003910      0.007527
      2.07028     -0.00393      5.41649        -0.016781      0.010749      0.003956
      4.12884      6.19962      5.42814         0.006993     -0.004103      0.014400
      6.18597      4.14663      5.42535        -0.003138      0.005598     -0.000694
      2.06197      2.05436      7.51186         0.004990     -0.011445     -0.000010
      0.00159      4.12849      7.51895         0.002600      0.005503      0.007904
      4.11510      0.00216      7.51179        -0.007946      0.001177      0.009379
      0.00181      2.05676      1.17908         0.011757     -0.017945     -0.017775
      2.06472      0.01526      1.16227        -0.017471      0.009197      0.003606
      6.20043      4.12391      1.18443        -0.008131     -0.002436      0.001234
      0.00431      8.24187      3.25130        -0.007047      0.002809      0.006563
      2.06493      6.19382      3.24743        -0.008342     -0.003706      0.013773
      4.12631      4.13186      3.24521         0.005626     -0.019858     -0.012331
     -0.00280      6.20430      5.40980        -0.006574      0.015706      0.000372
      4.13214      2.05826      5.43844        -0.006791      0.009989     -0.006985
      6.19274     -0.00662      5.41756         0.010402     -0.015016     -0.013246
     -0.00516     -0.00419      1.13927        -0.002516      0.013173     -0.018265
      2.04314      0.00789      7.53665        -0.000820     -0.000061      0.008947
      0.00235      2.06380      7.53430        -0.000084      0.004791      0.010304
      2.04465      2.03506      1.11297        -0.002756     -0.012987     -0.002096
     -0.01012     -0.04531      5.39665         0.005620      0.005074      0.004259
      2.01588      8.25100      3.26395         0.006756     -0.000229     -0.012177
      0.05145      2.07284      3.27180        -0.002692     -0.009650      0.008962
      2.12512      2.02490      5.41840        -0.007259     -0.000829     -0.001269
     -0.03647      4.12701      1.12988         0.004949     -0.001544     -0.000902
      2.03641      4.12768      7.65936        -0.014598     -0.001994     -0.015643
      0.02122      6.19221      7.54513         0.007539     -0.008167      0.001194
      2.07368      6.23053      1.10836         0.005695     -0.003960     -0.009923
     -0.01247      4.18574      5.41163         0.007597     -0.007430      0.004162
      2.05746      4.13640      3.21861         0.010216     -0.001384      0.004097
      0.00855      6.17697      3.25363         0.003069     -0.000114     -0.014334
      2.06554      6.23623      5.39792        -0.005853      0.001247      0.008822
      4.13857      0.06860      1.01221         0.002578      0.001420     -0.006019
      6.20418      0.02857      7.53405        -0.001488      0.010036      0.010405
      4.12960      2.02617      7.57124         0.001813     -0.012004      0.003570
      6.21380      2.05475      1.13869        -0.000252     -0.004938     -0.006739
      4.14250     -0.00109      5.45644        -0.000089      0.001781     -0.009658
      6.24143      8.20810      3.25717         0.003956     -0.005995     -0.006229
      4.07414      2.06488      3.25588        -0.000834     -0.007213      0.001124
      6.14903      2.07149      5.40662         0.003306      0.005090      0.000351
      4.16839      4.08587      1.12802         0.009316     -0.016643      0.015059
      6.20935      4.09242      7.55570         0.016091     -0.012131      0.007889
      4.09131      6.22621      7.55256        -0.004388      0.004592     -0.010734
      6.20201      6.19588      1.11206         0.005073      0.006337      0.000264
      4.14666      4.13135      5.37210        -0.004160     -0.000718     -0.002160
      6.19887      4.17076      3.28611        -0.006121      0.009816     -0.004088
      4.12104      6.18166      3.30706         0.003583      0.015405     -0.007265
      6.18865      6.19917      5.39542        -0.001141     -0.000443     -0.002325
      4.10283      4.10979      7.62707        -0.005589      0.006292      0.001054
      2.05857      4.11412      1.10204        -0.000971     -0.004981      0.009872
      4.12595      8.24322      3.24572         0.005517      0.000858      0.004325
      0.01550      2.06517      5.41361         0.000636     -0.008502      0.003768
      6.19238      6.20174      7.55120         0.001658      0.005659      0.000362
      4.15128      6.22780      1.05111         0.003997     -0.004345     -0.004787
      6.18628      2.06234      3.26205        -0.006661      0.003734      0.000877
      2.07969      4.13464      5.41632        -0.001954     -0.010401      0.009695
 -----------------------------------------------------------------------------------
    total drift:                                0.039617      0.055185      0.179933


--------------------------------------------------------------------------------------------------------



  FREE ENERGIE OF THE ION-ELECTRON SYSTEM (eV)
  ---------------------------------------------------
  free  energy   TOTEN  =      -348.19866037 eV

  energy  without entropy=     -348.19866037  energy(sigma->0) =     -348.19866037
 
 d Force = 0.1438486E-02[-0.122E-03, 0.300E-02]  d Energy = 0.4453885E-03 0.993E-03
 d Force = 0.1817008E+03[ 0.182E+03, 0.182E+03]  d Ewald  = 0.1817008E+03-0.181E-05


--------------------------------------------------------------------------------------------------------


    POTLOK:  cpu time      1.8147: real time      1.8152


--------------------------------------------------------------------------------------------------------


 stress matrix after NEB project (eV)
    -13.75451     -1.18940     -0.40983
     -1.18053    -11.55658     -0.25340
     -0.42478     -0.27629    -23.02151
  FORCES: max atom, RMS     0.027860    0.013888
  FORCE total and by dimension    0.111103    0.019858
  Stress total and by dimension   29.257965   23.021514
 Conjugate gradient step on ions:
 trial-energy change:   -0.000445  1 .order   -0.001438   -0.002999    0.000122
  (g-gl).g = 0.170E-02      g.g   = 0.172E-02  gl.gl    = 0.515E-02
 g(Force)  = 0.172E-02   g(Stress)= 0.000E+00 ortho     = 0.247E-04
 gamma     =   0.33002
 trial     =   1.73895
 opt step  =   0.84180  (harmonic =   1.67116) maximal distance =0.00230317
 next E    =  -348.198828   (d E  =  -0.00061)


--------------------------------------------------------------------------------------------------------


  
 reached required accuracy - stopping structural energy minimisation
     LOOP+:  cpu time    277.1713: real time    277.2967
    4ORBIT:  cpu time      0.0000: real time      0.0000



 total charge

# of ion       s       p       d       tot
------------------------------------------
    1        0.342   0.393   8.206   8.941
    2        0.343   0.395   8.213   8.951
    3        0.345   0.400   8.219   8.964
    4        0.339   0.387   8.204   8.930
    5        0.346   0.401   8.210   8.957
    6        0.342   0.393   8.208   8.943
    7        0.353   0.444   8.263   9.060
    8        0.349   0.435   8.252   9.035
    9        0.351   0.442   8.262   9.055
   10        0.351   0.439   8.259   9.049
   11        0.348   0.435   8.251   9.034
   12        0.347   0.433   8.251   9.032
   13        0.340   0.389   8.205   8.934
   14        0.342   0.394   8.206   8.942
   15        0.346   0.401   8.221   8.967
   16        0.343   0.395   8.210   8.947
   17        0.344   0.396   8.215   8.954
   18        0.345   0.400   8.216   8.960
   19        0.353   0.446   8.265   9.064
   20        0.346   0.431   8.247   9.025
   21        0.347   0.431   8.250   9.028
   22        0.353   0.446   8.264   9.062
   23        0.353   0.446   8.264   9.063
   24        0.347   0.432   8.249   9.028
   25        1.576   3.454   0.000   5.030
   26        1.576   3.454   0.000   5.030
   27        1.577   3.459   0.000   5.035
   28        1.577   3.457   0.000   5.034
   29        1.578   3.491   0.000   5.069
   30        1.578   3.490   0.000   5.068
   31        1.579   3.496   0.000   5.074
   32        1.579   3.495   0.000   5.073
   33        1.577   3.454   0.000   5.031
   34        1.576   3.451   0.000   5.028
   35        1.577   3.455   0.000   5.032
   36        1.577   3.457   0.000   5.034
   37        1.579   3.493   0.000   5.071
   38        1.578   3.486   0.000   5.065
   39        1.578   3.487   0.000   5.065
   40        1.578   3.489   0.000   5.068
   41        1.576   3.452   0.000   5.028
   42        1.577   3.456   0.000   5.033
   43        1.576   3.459   0.000   5.035
   44        1.577   3.460   0.000   5.037
   45        1.578   3.489   0.000   5.067
   46        1.578   3.494   0.000   5.072
   47        1.579   3.494   0.000   5.073
   48        1.578   3.495   0.000   5.073
   49        1.576   3.458   0.000   5.034
   50        1.577   3.457   0.000   5.034
   51        1.576   3.458   0.000   5.034
   52        1.577   3.458   0.000   5.034
   53        1.579   3.489   0.000   5.067
   54        1.578   3.491   0.000   5.068
   55        1.579   3.490   0.000   5.069
   56        1.578   3.485   0.000   5.063
   57        0.293   0.341   6.110   6.744
   58        0.292   0.347   6.180   6.820
   59        0.302   0.387   6.164   6.853
   60        0.304   0.393   6.169   6.866
   61        0.291   0.347   6.171   6.809
   62        0.295   0.343   6.111   6.749
   63        0.304   0.394   6.169   6.868
   64        0.302   0.387   6.163   6.852
--------------------------------------------------
tot         61.173 124.093 246.844 432.110



 magnetization (x)

# of ion       s       p       d       tot
------------------------------------------
    1       -0.003   0.001  -1.708  -1.710
    2       -0.002   0.001  -1.701  -1.703
    3       -0.002   0.001  -1.700  -1.701
    4       -0.001  -0.002  -1.707  -1.710
    5       -0.004  -0.001  -1.705  -1.710
    6       -0.000  -0.001  -1.699  -1.700
    7        0.001   0.006  -1.705  -1.698
    8        0.002   0.006  -1.705  -1.697
    9        0.002   0.006  -1.705  -1.698
   10        0.002   0.005  -1.707  -1.700
   11        0.002   0.006  -1.708  -1.700
   12        0.002   0.005  -1.709  -1.701
   13        0.000   0.001   1.701   1.701
   14        0.002   0.001   1.706   1.709
   15        0.001   0.004   1.699   1.704
   16        0.002  -0.000   1.706   1.708
   17        0.002  -0.000   1.701   1.702
   18        0.003  -0.001   1.702   1.704
   19       -0.002  -0.005   1.703   1.697
   20       -0.002  -0.006   1.707   1.699
   21       -0.002  -0.006   1.711   1.704
   22       -0.001  -0.005   1.705   1.699
   23       -0.001  -0.006   1.704   1.697
   24       -0.002  -0.006   1.708   1.700
   25        0.003   0.038   0.000   0.041
   26       -0.003  -0.037   0.000  -0.040
   27       -0.003  -0.034   0.000  -0.037
   28       -0.004  -0.017   0.000  -0.021
   29       -0.001  -0.009   0.000  -0.010
   30       -0.000   0.026   0.000   0.026
   31        0.001   0.008   0.000   0.009
   32        0.001   0.022   0.000   0.022
   33       -0.003  -0.016   0.000  -0.020
   34        0.002   0.017   0.000   0.019
   35        0.003   0.017   0.000   0.020
   36        0.002   0.051   0.000   0.054
   37        0.001   0.027   0.000   0.027
   38        0.000  -0.009   0.000  -0.008
   39       -0.000  -0.021   0.000  -0.021
   40       -0.000  -0.023   0.000  -0.023
   41       -0.002  -0.028   0.000  -0.030
   42        0.004   0.018   0.000   0.022
   43        0.002   0.039   0.000   0.041
   44        0.003   0.033   0.000   0.036
   45        0.000   0.032   0.000   0.032
   46       -0.001  -0.019   0.000  -0.019
   47       -0.000  -0.027   0.000  -0.028
   48       -0.001  -0.009   0.000  -0.009
   49        0.002   0.040   0.000   0.043
   50       -0.002  -0.051   0.000  -0.053
   51       -0.002  -0.047   0.000  -0.049
   52       -0.002  -0.024   0.000  -0.026
   53       -0.000   0.007   0.000   0.006
   54        0.001   0.008   0.000   0.009
   55        0.000  -0.009   0.000  -0.009
   56        0.001   0.002   0.000   0.003
   57       -0.023  -0.014  -3.639  -3.675
   58        0.010   0.007   0.154   0.171
   59       -0.014  -0.011  -3.645  -3.669
   60       -0.013  -0.011  -3.641  -3.665
   61       -0.008  -0.008  -0.162  -0.177
   62        0.023   0.014   3.638   3.674
   63        0.013   0.011   3.640   3.665
   64        0.014   0.011   3.647   3.672
--------------------------------------------------
tot          0.003   0.007  -0.012  -0.002
 

 total amount of memory used by VASP MPI-rank0   119523. kBytes
=======================================================================

   base      :      30000. kBytes
   nonlr-proj:       4127. kBytes
   fftplans  :       3778. kBytes
   grid      :       9886. kBytes
   one-center:        404. kBytes
   wavefun   :      71328. kBytes
 
  
  
 General timing and accounting informations for this job:
 ========================================================
  
                  Total CPU time used (sec):     4588.632
                            User time (sec):     4446.282
                          System time (sec):      142.349
                         Elapsed time (sec):     4591.478
  
                   Maximum memory used (kb):      254888.
                   Average memory used (kb):          N/A
  
                          Minor page faults:       652497
                          Major page faults:            0
                 Voluntary context switches:        51856
